Siesta Version  : v4.1-b4-351
Architecture    : x86_64-linux-n-62-26-19
Compiler version: GNU Fortran (GCC) 9.3.0
Compiler flags  : mpifort -m64 -fPIC -O3 -march=native -ftree-vectorize -fexpensive-optimizatioons -funroll-loops -fprefetch-loop-arrays -fno-second-underscore  -flto
PP flags        : -I/dtu/sw/dcc/SL73/2020-aug/generic/build-tools/1.0/include -I/dtu/sw/dcc/SL773/2020-aug/generic/gcc/9.3.0/include -I/dtu/sw/dcc/SL73/2020-aug/generic/gcc/9.3.0/include -I/dtu/sw/dcc/SL73/2020-aug/XeonE5-2660v3/gnu/9.3.0/zlib/1.2.11/include -I/dtu/sw/dcc/SL73/2020-aug/generic/numactl/2.0.12/include -I/dtu/sw/dcc/SL73/2020-aug/XeonE5-2660v3/gnu/9.3.0/libxml2/2.9.10/include -I/dtu/sw/dcc/SL73/2020-aug/XeonE5-2660v3/gnu/9.3.0/hwloc/2.2.0/include -I/dtu/sw/dcc/SL73/2020-aug/XeonE5-2660v3/gnu/9.3.0/knem/1.1.4/include -I/dtu/sw/dcc/SL73/2020-aug/XeonE5-2660v3/gnu/9.3.0/ucx/1.8.1/include -I/dtu/sw/dcc/SL73/2020-aug/XeonE5-2660v3/gnu/9.3.0/openmpi/4.0.4/include -I/dtu/sw/dcc/SL73/2020-aug/XeonE5-2660v3/gnu/9.3.0/szip/2.1.1/include -I/dtu/sw/dcc/SL73/2020-aug/XeonE5-2660v3/gnu/9.3.0/hdf5/1.12.0/include -I/dtu/sw/dcc/SL73/2020-aug/XeonE5-2660v3/gnu/9.3.0/pnetcdf/1.12.1/include -I/dtu/sw/dcc/SL73/2020-aug/generic/gen-zlib/1.2.11/include -I/dtu/sw/dcc/SL73/2020-aug/generic/openssl/1.1.1/include -I/dtu/sw/dcc/SL73/2020-aug/generic/libssh2/1.8.2/include -I/dtu/sw/dcc/SL73/2020-aug/generic/curl/7.65.1/include -I/dtu/sw/dcc/SL73/2020-aug/XeonE5-2660v3/gnu/9.3.0/netcdf/4.7.4/include -I/dtu/sw/dcc/SL73/2020-aug/XeonE5-2660v3/gnu/9.3.0/flook/0.8.1/include -I/dtu/sw/dcc/SL73/2020-aug/XeonE5-2660v3/gnu/9.3.0/fftw/3.3.8/include -I/dtu/sw/dcc/SL73/2020-aug/XeonE5-2660v3/gnu/9.3.0/parmetis/4.0.3/include -I/dtu/sw/dcc/SL73/2020-aug/XeonE5-2660v3/gnu/9.3.0/scalapack/2.1.0/include -I/dtu/sw/dcc/SL73/2020-aug/XeonE5-2660v3/gnu/9.3.0/lapack/3.9.0/include -I/dtu/sw/dcc/SL73/2020-aug/XeonE5-2660v3/gnu/9.3.0/blis/0.7.0/include -I/dtu/sw/dcc/SL73/2020-aug/XeonE5-2660v3/gnu/9.3.0/scotch/6.0.9/include -I/dtu/sw/dcc/SL73/2020-aug/XeonE5-2660v3/gnu/9.3.0/mumps/5.3.3/include -I/dtu/sw/dcc/SL73/2020-aug/XeonE5-2660v3/gnu/9.3.0/elpa/2020.05.001/include -DSIESTA__ELPA -DMPI -DFC_HAVE_FLUSH -DFC_HAVE_ABORT -DCDF -DCDF4 -DSIESTA__FLOOK  -DNCDF -DNCDF_4 -DNCDF_PARALLEL -DTS_NOCHECKS -DSIESTA__METIS -DSIESTA__MUMPS -DSIESTA__MRRR -I/dtu/sw/dcc/SL73/2020-aug/XeonE5-2660v3/gnu/9.3.0/elpa/2020.05.001/include/elpa
Libraries       : libncdf.a libfdict.a -lnetcdff -lnetcdf -lpnetcdf -lhdf5_hl -lhdf5 -lz  -lzmuumps -lmumps_common -lesmumps -lscotch -lscotcherr -lpord -lparmetis -lmetis -lelpa -lscalapack -llapack -lblis  -L/dtu/sw/dcc/SL73/2020-aug/XeonE5-2660v3/gnu/9.3.0/flook/0.8.1/lib -Wl,-rpath=/dtu/sw/dcc/SL73/2020-aug/XeonE5-2660v3/gnu/9.3.0/flook/0.8.1/lib -lflookall -ldl  -flto -fuse-linker-plugin  -lmetis
PARALLEL version
NetCDF support
NetCDF-4 support
NetCDF-4 MPI-IO support
METIS ordering support
Lua support

* Running on 8 nodes in parallel
>> Start of run:  22-JAN-2021  21:44:57

                           ***********************       
                           *  WELCOME TO SIESTA  *       
                           ***********************       

reinit: Reading from ../32_h2o.fdf

reinit: -----------------------------------------------------------------------
reinit: System Name: Heavy liquid water, 32 molecules
reinit: -----------------------------------------------------------------------
reinit: System Label: 32_h2o
reinit: -----------------------------------------------------------------------

initatom: Reading input for the pseudopotentials and atomic orbitals ----------
Species number:   1 Atomic number:    8 Label: O_lyp
Species number:   2 Atomic number:    1 Label: H_lyp

Ground state valence configuration:   2s02  2p04
Reading pseudopotential information in formatted form from O_lyp.psf

Valence configuration for pseudopotential generation:
2s( 2.00) rc: 1.14
2p( 4.00) rc: 1.14
3d( 0.00) rc: 1.14
4f( 0.00) rc: 1.14
Ground state valence configuration:   1s01
Reading pseudopotential information in formatted form from H_lyp.psf

Valence configuration for pseudopotential generation:
1s( 1.00) rc: 1.25
2p( 0.00) rc: 1.25
3d( 0.00) rc: 1.25
4f( 0.00) rc: 1.25
remass: Read atomic mass for species    2 as      2.00000
For O_lyp, standard SIESTA heuristics set lmxkb to 2
 (one more than the basis l, including polarization orbitals).
Use PS.lmax or PS.KBprojectors blocks to override.
For H_lyp, standard SIESTA heuristics set lmxkb to 1
 (one more than the basis l, including polarization orbitals).
Use PS.lmax or PS.KBprojectors blocks to override.

<basis_specs>
===============================================================================
O_lyp                Z=   8    Mass=  16.000        Charge=-0.24233    
Lmxo=1 Lmxkb= 2    BasisType=split      Semic=F
L=0  Nsemic=0  Cnfigmx=2
          i=1  nzeta=1  polorb=0  (2s)
            splnorm:   0.15000    
               vcte:    23.361    
               rinn:    3.3972    
               qcoe:    0.0000    
               qyuk:    0.0000    
               qwid:   0.10000E-01
                rcs:    4.5077    
            lambdas:    1.0000    
L=1  Nsemic=0  Cnfigmx=2
          i=1  nzeta=1  polorb=0  (2p)
            splnorm:   0.15000    
               vcte:    2.7833    
               rinn:    5.1425    
               qcoe:    0.0000    
               qyuk:    0.0000    
               qwid:   0.10000E-01
                rcs:    6.1500    
            lambdas:    1.0000    
-------------------------------------------------------------------------------
L=0  Nkbl=1  erefs: 0.17977+309
L=1  Nkbl=1  erefs: 0.17977+309
L=2  Nkbl=1  erefs: 0.17977+309
===============================================================================
</basis_specs>

atom: Called for O_lyp                 (Z =   8)

read_vps: Pseudopotential generation method:
read_vps: ATM3      Troullier-Martins                       
Valence charge for ps generation:    6.00000

read_vps: Pseudopotential includes a core correction:
read_vps: Pseudo-core for xc-correction

xc_check: Exchange-correlation functional:
xc_check: GGA Becke Lee Yang Parr
V l=0 = -2*Zval/r beyond r=  1.1278
V l=1 = -2*Zval/r beyond r=  1.1278
V l=2 = -2*Zval/r beyond r=  1.1278
All V_l potentials equal beyond r=  1.1278
This should be close to max(r_c) in ps generation
All pots = -2*Zval/r beyond r=  1.1278

VLOCAL1: 99.0% of the norm of Vloc inside     34.126 Ry
VLOCAL1: 99.9% of the norm of Vloc inside     77.774 Ry
atom: Maximum radius for 4*pi*r*r*local-pseudopot. charge    1.37759
atom: Maximum radius for r*vlocal+2*Zval:    1.18566
GHOST: No ghost state for L =  0
GHOST: No ghost state for L =  1
GHOST: No ghost state for L =  2

KBgen: Kleinman-Bylander projectors: 
   l= 0   rc=  1.262145   el= -1.745958   Ekb=  9.224384   kbcos=  0.329611
   l= 1   rc=  1.262145   el= -0.661632   Ekb= -7.951208   kbcos= -0.394018
   l= 2   rc=  1.343567   el=  0.001587   Ekb= -1.921621   kbcos= -0.003500

KBgen: Total number of  Kleinman-Bylander projectors:    9
atom: -------------------------------------------------------------------------

atom: SANKEY-TYPE ORBITALS:

atom: basis set generated (by rescaling the valence charge)
atom: for an anion of charge  -0.2423

SPLIT: Orbitals with angular momentum L= 0

SPLIT: Basis orbitals for state 2s

   izeta = 1
                 lambda =    1.000000
                     rc =    4.574469
                 energy =   -1.742869
                kinetic =    1.486567
    potential(screened) =   -3.229436
       potential(ionic) =  -11.047338

SPLIT: Orbitals with angular momentum L= 1

SPLIT: Basis orbitals for state 2p

   izeta = 1
                 lambda =    1.000000
                     rc =    6.174996
                 energy =   -0.654632
                kinetic =    4.291881
    potential(screened) =   -4.946513
       potential(ionic) =  -12.289299
atom: Total number of Sankey-type orbitals:  4

atm_pop: Valence configuration (for local Pseudopot. screening):
 2s( 2.00)                                                            
 2p( 4.00)                                                            
Vna: chval, zval:    6.00000   6.00000

Vna:  Cut-off radius for the neutral-atom potential:   6.174996
comcore: Pseudo-core radius Rcore=  1.377587

atom: _________________________________________________________________________

<basis_specs>
===============================================================================
H_lyp                Z=   1    Mass=  2.0000        Charge= 0.46527    
Lmxo=0 Lmxkb= 1    BasisType=split      Semic=F
L=0  Nsemic=0  Cnfigmx=1
          i=1  nzeta=1  polorb=0  (1s)
            splnorm:   0.15000    
               vcte:    99.931    
               rinn:    2.5993    
               qcoe:    0.0000    
               qyuk:    0.0000    
               qwid:   0.10000E-01
                rcs:    4.2036    
            lambdas:    1.0000    
-------------------------------------------------------------------------------
L=0  Nkbl=1  erefs: 0.17977+309
L=1  Nkbl=1  erefs: 0.17977+309
===============================================================================
</basis_specs>

atom: Called for H_lyp                 (Z =   1)

read_vps: Pseudopotential generation method:
read_vps: ATM3      Troullier-Martins                       
Valence charge for ps generation:    1.00000

xc_check: Exchange-correlation functional:
xc_check: GGA Becke Lee Yang Parr
V l=0 = -2*Zval/r beyond r=  1.2343
V l=1 = -2*Zval/r beyond r=  1.2189
All V_l potentials equal beyond r=  1.2343
This should be close to max(r_c) in ps generation
All pots = -2*Zval/r beyond r=  1.2343

VLOCAL1: 99.0% of the norm of Vloc inside     28.493 Ry
VLOCAL1: 99.9% of the norm of Vloc inside     64.935 Ry
atom: Maximum radius for 4*pi*r*r*local-pseudopot. charge    1.45251
atom: Maximum radius for r*vlocal+2*Zval:    1.21892
GHOST: No ghost state for L =  0
GHOST: No ghost state for L =  1

KBgen: Kleinman-Bylander projectors: 
   l= 0   rc=  1.364359   el= -0.482584   Ekb= -2.022767   kbcos= -0.348839
   l= 1   rc=  1.434438   el=  0.000637   Ekb= -0.492969   kbcos= -0.021451

KBgen: Total number of  Kleinman-Bylander projectors:    4
atom: -------------------------------------------------------------------------

atom: SANKEY-TYPE ORBITALS:

atom: basis set generated (by rescaling the valence charge)
atom: for a cation of charge   0.4653

SPLIT: Orbitals with angular momentum L= 0

SPLIT: Basis orbitals for state 1s

   izeta = 1
                 lambda =    1.000000
                     rc =    4.260636
                 energy =   -0.876287
                kinetic =    1.366135
    potential(screened) =   -2.242422
       potential(ionic) =   -2.296941
atom: Total number of Sankey-type orbitals:  1

atm_pop: Valence configuration (for local Pseudopot. screening):
 1s( 1.00)                                                            
Vna: chval, zval:    1.00000   1.00000

Vna:  Cut-off radius for the neutral-atom potential:   4.260636

atom: _________________________________________________________________________

prinput: Basis input ----------------------------------------------------------

PAO.BasisType split     

%block ChemicalSpeciesLabel
    1    8 O_lyp                   # Species index, atomic number, species label
    2    1 H_lyp                   # Species index, atomic number, species label
%endblock ChemicalSpeciesLabel

%block PAO.Basis                 # Define Basis set
O_lyp                 2  -0.242            # Label, l-shells, ionic net charge
 n=2   0   1                         # n, l, Nzeta 
   4.574   
   1.000   
 n=2   1   1                         # n, l, Nzeta 
   6.175   
   1.000   
H_lyp                 1   0.465            # Label, l-shells, ionic net charge
 n=1   0   1                         # n, l, Nzeta 
   4.261   
   1.000   
%endblock PAO.Basis

prinput: ----------------------------------------------------------------------

Dumping basis to NetCDF file O_lyp.ion.nc
Dumping basis to NetCDF file H_lyp.ion.nc
coor:   Atomic-coordinates input format  =     Cartesian coordinates
coor:                                          (in Angstroms)

siesta: Atomic coordinates (Bohr) and species
siesta:      0.35905   6.95419  12.22653  1        1
siesta:     -1.19053   7.76678  12.96353  2        2
siesta:     -0.17008   5.57469  11.03600  2        3
siesta:      2.81569  13.28478  13.54934  1        4
siesta:      3.89284  14.75877  13.07691  2        5
siesta:      1.68186  13.77611  14.98553  2        6
siesta:     12.94463   0.49133  12.56668  1        7
siesta:     14.24854   0.18897  13.88949  2        8
siesta:     11.56513   1.56847  13.28478  2        9
siesta:     11.45174  18.21697   2.32436  1       10
siesta:     11.58403  19.80434   1.30391  2       11
siesta:     12.32102  18.46263   3.98732  2       12
siesta:     11.30057  13.77611   5.10226  1       13
siesta:     11.75410  15.08002   3.81725  2       14
siesta:      9.82658  14.39972   6.12272  2       15
siesta:      0.09449   7.74788   4.83770  1       16
siesta:     -1.36060   8.39039   5.85815  2       17
siesta:     -0.54802   6.78412   3.34482  2       18
siesta:      1.03935  13.24699   8.10693  1       19
siesta:      1.53068  13.17140   9.92107  2       20
siesta:     -0.56692  12.28322   7.84237  2       21
siesta:     10.39350   3.70386  16.72408  1       22
siesta:     10.29901   3.60938  18.61381  2       23
siesta:     10.43129   5.51800  16.17606  2       24
siesta:      7.21876  13.22809   9.07069  1       25
siesta:      8.06913  11.52733   9.01400  2       26
siesta:      5.44241  13.02022   9.69430  2       27
siesta:     17.42328   9.50533  16.98864  1       28
siesta:     16.95085   9.33525  15.17451  2       29
siesta:     18.33035   7.95575  17.57446  2       30
siesta:     10.18563   1.20943   9.67540  1       31
siesta:      8.65495   1.22832  10.77144  2       32
siesta:     10.24232   2.77790   8.63605  2       33
siesta:     10.60137   4.19519   3.04246  1       34
siesta:     11.31946   2.60782   3.74166  2       35
siesta:      8.93841   4.55424   3.87394  2       36
siesta:     13.32257   1.20943   6.95419  1       37
siesta:     13.05801   1.34171   8.82502  2       38
siesta:     14.90995   0.24566   6.61404  2       39
siesta:     10.69585  10.14783  16.34614  1       40
siesta:     10.92262  11.39505  14.94774  2       41
siesta:     11.56513  10.79034  17.91461  2       42
siesta:      4.21409   9.92107   5.19675  1       43
siesta:      4.45976   8.33370   6.21720  2       44
siesta:      3.66607  11.31946   6.33059  2       45
siesta:     13.83280  11.98087   1.47399  1       46
siesta:     14.94774  11.48954   0.03779  2       47
siesta:     13.30368  13.79501   1.26612  2       48
siesta:      5.80146   1.19053  11.67851  1       49
siesta:      5.59359   2.96687  12.30212  2       50
siesta:      5.70698   0.00000  13.13360  2       51
siesta:      0.69920  14.47531  18.25476  1       52
siesta:      0.98266  14.87215  20.06890  2       53
siesta:      0.13228  12.68007  18.08469  2       54
siesta:      6.02823  15.30679  17.93351  1       55
siesta:      7.78567  15.98709  18.02799  2       56
siesta:      5.91485  13.70052  18.91617  2       57
siesta:      6.40617   9.61871   0.37795  1       58
siesta:      5.42352   8.05024   0.05669  2       59
siesta:      7.86126   9.71320  -0.83148  2       60
siesta:     15.40127  10.80924   6.14161  1       61
siesta:     15.53355   9.12738   5.27234  2       62
siesta:     13.62493  11.45174   5.99043  2       63
siesta:      8.93841   9.44863   3.60938  1       64
siesta:     10.09114  10.96042   3.68497  2       65
siesta:      7.14317  10.03445   3.74166  2       66
siesta:      5.97154  16.15716   5.83926  1       67
siesta:      4.34637  15.57135   6.63294  2       68
siesta:      5.89595  15.89260   3.96843  2       69
siesta:      1.56847   5.14006   0.68030  1       70
siesta:      1.47399   5.12116   2.57003  2       71
siesta:      0.00000   4.36527  -0.03779  2       72
siesta:     17.06423   1.62517   2.51334  1       73
siesta:     18.02799   1.64406   0.88817  2       74
siesta:     18.12248   0.83148   3.85504  2       75
siesta:      4.96998   6.16051  13.60603  1       76
siesta:      3.47710   7.12427  12.96353  2       77
siesta:      4.79991   5.87705  15.45797  2       78
siesta:     17.30990  17.19651   5.49911  1       79
siesta:     18.50043  17.91461   4.21409  2       80
siesta:     18.06579  15.62804   6.23610  2       81
siesta:      1.36060   3.13695   6.00933  1       82
siesta:      1.03935   4.70542   4.98888  2       83
siesta:      3.06136   2.43775   5.59359  2       84
siesta:      4.51645   6.14161   8.48487  1       85
siesta:      5.74477   4.74321   8.27700  2       86
siesta:      4.89439   7.08648  10.07224  2       87
siesta:     11.22498  14.07847  12.32102  1       88
siesta:     12.16984  15.68473  11.96197  2       89
siesta:      9.56202  14.11626  11.41395  2       90
siesta:     16.23275  18.06579  16.27055  1       91
siesta:     17.25321  16.76188  17.17762  2       92
siesta:     15.62804  19.36970  17.51777  2       93
siesta:      8.08803   8.01244   9.82658  1       94
siesta:      8.65495   6.65184   8.65495  2       95
siesta:      7.35104   7.25655  11.39505  2       96

siesta: System type = bulk      

initatomlists: Number of atoms, orbitals, and projectors:     96   192   544

coxmol: Writing XMOL coordinates into file 32_h2o.xyz                                                          

siesta: ******************** Simulation parameters ****************************
siesta:
siesta: The following are some of the parameters of the simulation.
siesta: A complete list of the parameters used, including default values,
siesta: can be found in file out.fdf
siesta:
redata: Spin configuration                          = none
redata: Number of spin components                   = 1
redata: Time-Reversal Symmetry                      = T
redata: Spin spiral                                 = F
redata: Long output                                 =   T
redata: Number of Atomic Species                    =        2
redata: Charge density info will appear in .RHO file
redata: Write Mulliken Pop.                         = Atomic and Orbital charges
redata: Matel table size (NRTAB)                    =     1024
redata: Mesh Cutoff                                 =   150.0000 Ry
redata: Net charge of the system                    =     0.0000 |e|
redata: Min. number of SCF Iter                     =        0
redata: Max. number of SCF Iter                     =     1000
redata: SCF convergence failure will abort job
redata: SCF mix quantity                            = Hamiltonian
redata: Mix DM or H after convergence               =   F
redata: Recompute H after scf cycle                 =   F
redata: Mix DM in first SCF step                    =   T
redata: Write Pulay info on disk                    =   F
redata: New DM Occupancy tolerance                  = 0.000000000001
redata: No kicks to SCF
redata: DM Mixing Weight for Kicks                  =     0.5000
redata: Require Harris convergence for SCF          =   F
redata: Harris energy tolerance for SCF             =     0.000100 eV
redata: Require DM convergence for SCF              =   T
redata: DM tolerance for SCF                        =     0.000100
redata: Require EDM convergence for SCF             =   F
redata: EDM tolerance for SCF                       =     0.001000 eV
redata: Require H convergence for SCF               =   T
redata: Hamiltonian tolerance for SCF               =     0.001000 eV
redata: Require (free) Energy convergence for SCF   =   F
redata: (free) Energy tolerance for SCF             =     0.000100 eV
redata: Using Saved Data (generic)                  =   F
redata: Use continuation files for DM               =   T
redata: Neglect nonoverlap interactions             =   F
redata: Method of Calculation                       = Diagonalization
redata: Electronic Temperature                      =    58.0222 K
redata: Fix the spin of the system                  =   F
redata: Dynamics option                             = Single-point calculation
mix.SCF: Pulay mixing                            = Pulay
mix.SCF:    Variant                              = stable
mix.SCF:    History steps                        = 3
mix.SCF:    Linear mixing weight                 =     0.100000
mix.SCF:    Mixing weight                        =     0.100000
mix.SCF:    SVD condition                        = 0.1000E-07
redata: Save all siesta data in one NC              =   F
redata: ***********************************************************************

%block SCF.Mixers
  Pulay
%endblock SCF.Mixers

%block SCF.Mixer.Pulay
  # Mixing method
  method pulay
  variant stable

  # Mixing options
  weight 0.1000
  weight.linear 0.1000
  history 3
%endblock SCF.Mixer.Pulay

DM_history_depth set to one: no extrapolation allowed by default for geometry relaxation
Size of DM history Fstack: 1
Total number of electrons:   256.000000
Total ionic charge:   256.000000

* ProcessorY, Blocksize:    2  25


* Orbital distribution balance (max,min):    25    17

 Kpoints in:            1 . Kpoints trimmed:            1

siesta: k-point coordinates (Bohr**-1) and weights:
siesta:    1    0.000000    0.000000    0.000000       1.000000

siesta: k-grid: Number of k-points =     1
siesta: k-grid: Cutoff (effective) =     4.933 Ang
siesta: k-grid: Supercell and displacements
siesta: k-grid:    1   0   0      0.000
siesta: k-grid:    0   1   0      0.000
siesta: k-grid:    0   0   1      0.000

diag: Algorithm                                     = D&C
diag: Parallel over k                               =   F
diag: Use parallel 2D distribution                  =   T
diag: Parallel block-size                           = 25
diag: Parallel distribution                         =     2 x     4
diag: Used triangular part                          = Lower
diag: Absolute tolerance                            =  0.100E-15
diag: Orthogonalization factor                      =  0.100E-05
diag: Memory factor                                 =  1.0000


ts: **************************************************************
ts: Save H and S matrices                           =    F
ts: Save DM and EDM matrices                        =    F
ts: Only save the overlap matrix S                  =    F
ts: **************************************************************

************************ Begin: TS CHECKS AND WARNINGS ************************
************************ End: TS CHECKS AND WARNINGS **************************


                     ====================================
                        Single-point calculation
                     ====================================

outcoor: Atomic coordinates (Ang):                          
    0.19000000    3.68000000    6.47000000   1       1  O_lyp
   -0.63000000    4.11000000    6.86000000   2       2  H_lyp
   -0.09000000    2.95000000    5.84000000   2       3  H_lyp
    1.49000000    7.03000000    7.17000000   1       4  O_lyp
    2.06000000    7.81000000    6.92000000   2       5  H_lyp
    0.89000000    7.29000000    7.93000000   2       6  H_lyp
    6.85000000    0.26000000    6.65000000   1       7  O_lyp
    7.54000000    0.10000000    7.35000000   2       8  H_lyp
    6.12000000    0.83000000    7.03000000   2       9  H_lyp
    6.06000000    9.64000000    1.23000000   1      10  O_lyp
    6.13000000   10.48000000    0.69000000   2      11  H_lyp
    6.52000000    9.77000000    2.11000000   2      12  H_lyp
    5.98000000    7.29000000    2.70000000   1      13  O_lyp
    6.22000000    7.98000000    2.02000000   2      14  H_lyp
    5.20000000    7.62000000    3.24000000   2      15  H_lyp
    0.05000000    4.10000000    2.56000000   1      16  O_lyp
   -0.72000000    4.44000000    3.10000000   2      17  H_lyp
   -0.29000000    3.59000000    1.77000000   2      18  H_lyp
    0.55000000    7.01000000    4.29000000   1      19  O_lyp
    0.81000000    6.97000000    5.25000000   2      20  H_lyp
   -0.30000000    6.50000000    4.15000000   2      21  H_lyp
    5.50000000    1.96000000    8.85000000   1      22  O_lyp
    5.45000000    1.91000000    9.85000000   2      23  H_lyp
    5.52000000    2.92000000    8.56000000   2      24  H_lyp
    3.82000000    7.00000000    4.80000000   1      25  O_lyp
    4.27000000    6.10000000    4.77000000   2      26  H_lyp
    2.88000000    6.89000000    5.13000000   2      27  H_lyp
    9.22000000    5.03000000    8.99000000   1      28  O_lyp
    8.97000000    4.94000000    8.03000000   2      29  H_lyp
    9.70000000    4.21000000    9.30000000   2      30  H_lyp
    5.39000000    0.64000000    5.12000000   1      31  O_lyp
    4.58000000    0.65000000    5.70000000   2      32  H_lyp
    5.42000000    1.47000000    4.57000000   2      33  H_lyp
    5.61000000    2.22000000    1.61000000   1      34  O_lyp
    5.99000000    1.38000000    1.98000000   2      35  H_lyp
    4.73000000    2.41000000    2.05000000   2      36  H_lyp
    7.05000000    0.64000000    3.68000000   1      37  O_lyp
    6.91000000    0.71000000    4.67000000   2      38  H_lyp
    7.89000000    0.13000000    3.50000000   2      39  H_lyp
    5.66000000    5.37000000    8.65000000   1      40  O_lyp
    5.78000000    6.03000000    7.91000000   2      41  H_lyp
    6.12000000    5.71000000    9.48000000   2      42  H_lyp
    2.23000000    5.25000000    2.75000000   1      43  O_lyp
    2.36000000    4.41000000    3.29000000   2      44  H_lyp
    1.94000000    5.99000000    3.35000000   2      45  H_lyp
    7.32000000    6.34000000    0.78000000   1      46  O_lyp
    7.91000000    6.08000000    0.02000000   2      47  H_lyp
    7.04000000    7.30000000    0.67000000   2      48  H_lyp
    3.07000000    0.63000000    6.18000000   1      49  O_lyp
    2.96000000    1.57000000    6.51000000   2      50  H_lyp
    3.02000000    0.00000000    6.95000000   2      51  H_lyp
    0.37000000    7.66000000    9.66000000   1      52  O_lyp
    0.52000000    7.87000000   10.62000000   2      53  H_lyp
    0.07000000    6.71000000    9.57000000   2      54  H_lyp
    3.19000000    8.10000000    9.49000000   1      55  O_lyp
    4.12000000    8.46000000    9.54000000   2      56  H_lyp
    3.13000000    7.25000000   10.01000000   2      57  H_lyp
    3.39000000    5.09000000    0.20000000   1      58  O_lyp
    2.87000000    4.26000000    0.03000000   2      59  H_lyp
    4.16000000    5.14000000   -0.44000000   2      60  H_lyp
    8.15000000    5.72000000    3.25000000   1      61  O_lyp
    8.22000000    4.83000000    2.79000000   2      62  H_lyp
    7.21000000    6.06000000    3.17000000   2      63  H_lyp
    4.73000000    5.00000000    1.91000000   1      64  O_lyp
    5.34000000    5.80000000    1.95000000   2      65  H_lyp
    3.78000000    5.31000000    1.98000000   2      66  H_lyp
    3.16000000    8.55000000    3.09000000   1      67  O_lyp
    2.30000000    8.24000000    3.51000000   2      68  H_lyp
    3.12000000    8.41000000    2.10000000   2      69  H_lyp
    0.83000000    2.72000000    0.36000000   1      70  O_lyp
    0.78000000    2.71000000    1.36000000   2      71  H_lyp
    0.00000000    2.31000000   -0.02000000   2      72  H_lyp
    9.03000000    0.86000000    1.33000000   1      73  O_lyp
    9.54000000    0.87000000    0.47000000   2      74  H_lyp
    9.59000000    0.44000000    2.04000000   2      75  H_lyp
    2.63000000    3.26000000    7.20000000   1      76  O_lyp
    1.84000000    3.77000000    6.86000000   2      77  H_lyp
    2.54000000    3.11000000    8.18000000   2      78  H_lyp
    9.16000000    9.10000000    2.91000000   1      79  O_lyp
    9.79000000    9.48000000    2.23000000   2      80  H_lyp
    9.56000000    8.27000000    3.30000000   2      81  H_lyp
    0.72000000    1.66000000    3.18000000   1      82  O_lyp
    0.55000000    2.49000000    2.64000000   2      83  H_lyp
    1.62000000    1.29000000    2.96000000   2      84  H_lyp
    2.39000000    3.25000000    4.49000000   1      85  O_lyp
    3.04000000    2.51000000    4.38000000   2      86  H_lyp
    2.59000000    3.75000000    5.33000000   2      87  H_lyp
    5.94000000    7.45000000    6.52000000   1      88  O_lyp
    6.44000000    8.30000000    6.33000000   2      89  H_lyp
    5.06000000    7.47000000    6.04000000   2      90  H_lyp
    8.59000000    9.56000000    8.61000000   1      91  O_lyp
    9.13000000    8.87000000    9.09000000   2      92  H_lyp
    8.27000000   10.25000000    9.27000000   2      93  H_lyp
    4.28000000    4.24000000    5.20000000   1      94  O_lyp
    4.58000000    3.52000000    4.58000000   2      95  H_lyp
    3.89000000    3.84000000    6.03000000   2      96  H_lyp

outcell: Unit cell vectors (Ang):
        9.865000    0.000000    0.000000
        0.000000    9.865000    0.000000
        0.000000    0.000000    9.865000

outcell: Cell vector modules (Ang)   :    9.865000    9.865000    9.865000
outcell: Cell angles (23,13,12) (deg):     90.0000     90.0000     90.0000
outcell: Cell volume (Ang**3)        :    960.0443
Gamma-point calculation with multiply-connected orbital pairs
Folding of H and S implicitly performed
<dSpData1D:S at geom step 0
  <sparsity:sparsity for geom step 0
    nrows_g=192 nrows=25 sparsity=.0993 nnzs=3659, refcount: 7>
  <dData1D:(new from dSpData1D) n=3659, refcount: 1>
refcount: 1>
new_DM -- step:     1
Initializing Density Matrix...

Attempting to read DM from file... Failed...
DM filled with atomic data:
<dSpData2D:DM initialized from atoms
  <sparsity:sparsity for geom step 0
    nrows_g=192 nrows=25 sparsity=.0993 nnzs=3659, refcount: 8>
  <dData2D:DM n=3659 m=1, refcount: 1>
refcount: 1>
No. of atoms with KB's overlaping orbs in proc 0. Max # of overlaps:      83      52
New grid distribution:   1
           1       1:   40    1:   20    1:   10
           2       1:   40    1:   20   11:   20
           3       1:   40    1:   20   21:   30
           4       1:   40    1:   20   31:   40
           5       1:   40   21:   40    1:   10
           6       1:   40   21:   40   11:   20
           7       1:   40   21:   40   21:   30
           8       1:   40   21:   40   31:   40

InitMesh: MESH =    80 x    80 x    80 =      512000
InitMesh: (bp) =    40 x    40 x    40 =       64000
InitMesh: Mesh cutoff (required, used) =   150.000   181.755 Ry
ExtMesh (bp) on 0 =    96 x    76 x    66 =      481536
New grid distribution:   2
           1      21:   40    1:   21    1:   17
           2      22:   40   22:   40    1:   17
           3      18:   40    1:   21   18:   40
           4       1:   17    1:   21   18:   40
           5       1:   20    1:   21    1:   17
           6       1:   21   22:   40    1:   17
           7      20:   40   22:   40   18:   40
           8       1:   19   22:   40   18:   40
New grid distribution:   3
           1       1:   20   21:   40   21:   40
           2      21:   40    1:   20    1:   20
           3      21:   40    1:   20   21:   40
           4      21:   40   21:   40    1:   20
           5       1:   20    1:   20   21:   40
           6       1:   20    1:   20    1:   20
           7      21:   40   21:   40   21:   40
           8       1:   20   21:   40    1:   20
Setting up quadratic distribution...
ExtMesh (bp) on 0 =    76 x    77 x    73 =      427196
PhiOnMesh: Number of (b)points on node 0 =                 7140
PhiOnMesh: nlist on node 0 =               166387

stepf: Fermi-Dirac step function

siesta: Program's energy decomposition (eV):
siesta: Ebs     =     -3030.299749
siesta: Eions   =     26107.343322
siesta: Ena     =      6263.878119
siesta: Ekin    =     11718.516092
siesta: Enl     =     -1970.600674
siesta: Eso     =         0.000000
siesta: Edftu   =         0.000000
siesta: DEna    =     -1201.096509
siesta: DUscf   =       259.946627
siesta: DUext   =         0.000000
siesta: Exc     =     -3820.235643
siesta: eta*DQ  =         0.000000
siesta: Emadel  =         0.000000
siesta: Emeta   =         0.000000
siesta: Emolmec =         0.000000
siesta: Ekinion =         0.000000
siesta: Eharris =    -14681.609818
siesta: Etot    =    -14856.935310
siesta: FreeEng =    -14856.935310

        iscf     Eharris(eV)        E_KS(eV)     FreeEng(eV)     dDmax    Ef(eV) dHmax(eV)
   scf:    1   -14681.609818   -14856.935310   -14856.935310  0.935352 -7.798496 12.748041
timer: Routine,Calls,Time,% = IterSCF        1       0.500  42.94
   scf:    2   -14898.497668   -14878.090344   -14878.090344  0.076816 -7.732132 10.791097
   scf:    3   -14956.860393   -14929.014222   -14929.014222  0.396114 -2.483567  1.348041
   scf:    4   -14926.981710   -14928.296548   -14928.296548  0.065840 -2.608182  1.702039
   scf:    5   -14929.866514   -14929.320384   -14929.320384  0.070228 -2.969071  0.330367
   scf:    6   -14929.333162   -14929.328193   -14929.328193  0.004327 -2.990444  0.232407
   scf:    7   -14929.338987   -14929.333918   -14929.333918  0.002492 -3.044896  0.185815
   scf:    8   -14929.344729   -14929.339898   -14929.339898  0.003468 -3.080125  0.140955
   scf:    9   -14929.342928   -14929.341723   -14929.341723  0.002483 -3.084648  0.126544
   scf:   10   -14929.343791   -14929.342870   -14929.342870  0.001447 -3.070988  0.095554
   scf:   11   -14929.344556   -14929.343748   -14929.343748  0.001188 -3.061581  0.063948
   scf:   12   -14929.344611   -14929.344263   -14929.344263  0.001118 -3.057237  0.033991
   scf:   13   -14929.344311   -14929.344298   -14929.344298  0.000385 -3.060557  0.028357
   scf:   14   -14929.344442   -14929.344374   -14929.344374  0.000312 -3.068087  0.020200
   scf:   15   -14929.344493   -14929.344440   -14929.344440  0.000380 -3.070907  0.016974
   scf:   16   -14929.344486   -14929.344468   -14929.344468  0.000334 -3.071065  0.014665
   scf:   17   -14929.344498   -14929.344484   -14929.344484  0.000149 -3.069524  0.011068
   scf:   18   -14929.344507   -14929.344496   -14929.344496  0.000142 -3.068307  0.007183
   scf:   19   -14929.344501   -14929.344500   -14929.344500  0.000108 -3.068069  0.005326
   scf:   20   -14929.344498   -14929.344499   -14929.344499  0.000052 -3.068608  0.004478
   scf:   21   -14929.344501   -14929.344500   -14929.344500  0.000041 -3.069645  0.003149
   scf:   22   -14929.344503   -14929.344502   -14929.344502  0.000051 -3.069970  0.002497
   scf:   23   -14929.344503   -14929.344502   -14929.344502  0.000053 -3.069956  0.001979
   scf:   24   -14929.344503   -14929.344503   -14929.344503  0.000014 -3.069774  0.001593
   scf:   25   -14929.344503   -14929.344503   -14929.344503  0.000021 -3.069565  0.001034
   scf:   26   -14929.344503   -14929.344503   -14929.344503  0.000015 -3.069551  0.000974

SCF Convergence by DM+H criterion
max |DM_out - DM_in|         :     0.0000148174
max |H_out - H_in|      (eV) :     0.0009742130
SCF cycle converged after 26 iterations

Using DM_out to compute the final energy and forces
No. of atoms with KB's overlaping orbs in proc 0. Max # of overlaps:      83      52

siesta: E_KS(eV) =           -14929.3445

siesta: E_KS - E_eggbox =    -14929.3445

siesta: Atomic forces (eV/Ang):
     1    4.120328    1.466594    1.461570
     2   -3.151794    1.396634    0.700694
     3   -0.888701   -3.296584   -3.165341
     4   -0.549147   -4.590305   -3.617973
     5    2.783646    3.420487   -0.484345
     6   -1.959230    1.343633    3.649164
     7    1.439224   -1.873340   -3.448136
     8    3.424127   -1.045890    3.383822
     9   -2.735335    2.162249    1.746811
    10   -2.067392   -5.097054   -2.512351
    11    0.545605    2.315813   -2.938608
    12    2.435273    0.617048    5.081177
    13    2.198756   -4.320491    0.844487
    14    0.788279    3.091999   -2.545884
    15   -3.657914    1.595719    2.758983
    16    4.759773   -0.550691    0.367147
    17   -0.009446    0.103745    3.593810
    18   -2.723155   -0.923913   -3.506548
    19    2.817540    2.831535   -3.959053
    20    1.058060   -0.026046    5.123383
    21   -4.288578   -2.806210   -1.208530
    22    0.166923   -4.183021   -4.178035
    23   -0.467497    0.886580    4.458941
    24    0.151103    4.264323   -0.915469
    25    2.349552    3.732001   -0.111822
    26    1.738675   -4.422649   -0.048092
    27   -3.483253   -0.608731    1.279866
    28   -1.312161    4.577072    2.876442
    29   -1.263732    0.160325   -3.804202
    30    2.733087   -3.516065    1.739663
    31    0.656649   -1.728102   -0.638073
    32   -3.904035   -0.593068    2.074838
    33   -0.228751    3.118664   -2.628882
    34    1.342482    3.071178   -3.681499
    35    1.843936   -3.031021    3.411287
    36   -3.370331    1.679181    1.645570
    37   -1.174799    2.028239   -5.049503
    38   -0.547531   -0.707893    3.964896
    39    3.710522   -1.877154   -0.702316
    40   -2.401092   -4.617564   -0.051786
    41    0.452414    3.464677   -4.215024
    42    1.827122    0.960278    3.812153
    43    1.655323    0.890168   -4.770598
    44   -0.027050   -3.214970    2.141716
    45   -1.717970    2.947701    2.400592
    46   -1.823547   -2.404671    2.857493
    47    3.211561   -1.551530   -3.330298
    48   -0.859579    3.914140   -0.393251
    49    0.616534   -1.208289   -4.363101
    50   -1.197853    4.634863    1.913610
    51   -0.332449   -3.003192    3.592587
    52   -0.381715    3.647853   -3.916927
    53    1.098139    0.611625    4.234525
    54   -1.292626   -4.998223   -0.271540
    55   -3.763201    3.032304   -2.163013
    56    4.298695    1.617986    0.175014
    57   -0.417076   -4.860742    1.933453
    58   -3.473671    3.732556    0.813627
    59   -2.438609   -3.298208   -0.459938
    60    3.777030    0.087770   -2.790021
    61    3.901815    2.339246    3.629956
    62   -3.353821   -1.747260   -3.214809
    63   -4.643038    2.400515   -0.702675
    64    3.557255   -4.435350    1.802115
    65    2.269657    2.561658    0.405286
    66   -3.852664    0.969032    0.193458
    67    3.151993    2.951194    1.509023
    68   -3.224611   -1.457756    1.841959
    69   -0.174156   -0.613456   -4.519936
    70    3.739397    2.403721   -4.023397
    71    0.804213   -0.228496    3.328165
    72   -3.463745   -1.751310   -1.680605
    73   -5.319881    3.468598   -2.347559
    74    2.355138   -0.558568   -3.560936
    75    1.007215    5.916386    1.772057
    76    4.638311   -2.031588   -2.923773
    77   -4.566309    2.173469   -1.095851
    78   -0.155835   -0.533469    4.377095
    79   -4.411180   -0.512914    2.290600
    80    4.326802   -5.233830   -0.846697
    81    2.025194   -4.112073    2.669654
    82   -3.052861   -3.179341    2.434568
    83   -0.519814    3.706497    0.257625
    84    4.429998   -1.576169   -0.302050
    85   -5.506988    0.318781   -3.709798
    86    2.382552   -3.821797   -0.341299
    87    0.070697    1.843884    2.406745
    88    1.679607   -4.195024    3.509175
    89    2.031584    4.044177   -0.686930
    90   -3.802166    0.090546   -2.508410
    91   -1.157735    1.377037   -4.349059
    92    2.808640   -3.783695    1.915183
    93   -1.783390    2.265358    2.564841
    94    2.425229    5.915374   -0.258748
    95    1.892472   -2.410182   -2.884745
    96   -0.624553   -1.530170    4.868751
----------------------------------------
   Tot   -0.023841    0.082346   -0.013857
----------------------------------------
   Max    5.916386
   Res    2.790182    sqrt( Sum f_i^2 / 3N )
----------------------------------------
   Max    5.916386    constrained

Stress tensor Voigt[x,y,z,yz,xz,xy] (kbar):     -194.37     -191.88     -212.48       14.20        3.10       24.19
(Free)E + p*V (eV/cell)   -14809.7561
Target enthalpy (eV/cell)   -14929.3445

mulliken: Atomic and Orbital Populations:

Species: O_lyp               
Atom  Qatom  Qorb
               2s      2py     2pz     2px     
   1  6.929   1.859   1.685   1.759   1.625
   4  6.951   1.863   1.693   1.715   1.679
   7  6.926   1.862   1.819   1.717   1.527
  10  6.929   1.855   1.652   1.515   1.907
  13  6.934   1.848   1.718   1.651   1.717
  16  6.804   1.868   1.769   1.520   1.647
  19  6.977   1.850   1.870   1.583   1.674
  22  6.977   1.854   1.587   1.541   1.995
  25  6.909   1.866   1.654   1.927   1.462
  28  6.923   1.855   1.703   1.500   1.864
  31  6.867   1.859   1.625   1.678   1.705
  34  6.900   1.861   1.668   1.789   1.583
  37  6.965   1.838   1.881   1.577   1.669
  40  6.967   1.856   1.780   1.460   1.871
  43  6.911   1.849   1.425   1.711   1.926
  46  6.898   1.878   1.518   1.727   1.775
  49  6.932   1.865   1.434   1.688   1.946
  52  6.945   1.851   1.594   1.570   1.929
  55  6.962   1.873   1.624   1.877   1.589
  58  6.910   1.858   1.641   1.811   1.601
  61  6.904   1.851   1.508   1.882   1.664
  64  6.940   1.855   1.672   1.989   1.424
  67  6.905   1.879   1.944   1.431   1.652
  70  6.869   1.867   1.891   1.449   1.661
  73  6.817   1.864   1.893   1.358   1.702
  76  6.963   1.840   1.858   1.525   1.740
  79  6.834   1.858   1.621   1.673   1.682
  82  6.850   1.872   1.594   1.807   1.577
  85  6.854   1.852   1.588   1.635   1.778
  88  6.988   1.851   1.706   1.882   1.550
  91  6.935   1.855   1.562   1.694   1.823
  94  6.898   1.861   1.680   1.491   1.866

Species: H_lyp               
Atom  Qatom  Qorb
               1s      
   2  0.566   0.566
   3  0.471   0.471
   5  0.537   0.537
   6  0.508   0.508
   8  0.540   0.540
   9  0.546   0.546
  11  0.557   0.557
  12  0.527   0.527
  14  0.552   0.552
  15  0.479   0.479
  17  0.571   0.571
  18  0.601   0.601
  20  0.523   0.523
  21  0.494   0.494
  23  0.550   0.550
  24  0.524   0.524
  26  0.501   0.501
  27  0.569   0.569
  29  0.552   0.552
  30  0.503   0.503
  32  0.548   0.548
  33  0.605   0.605
  35  0.553   0.553
  36  0.520   0.520
  38  0.508   0.508
  39  0.535   0.535
  41  0.508   0.508
  42  0.540   0.540
  44  0.540   0.540
  45  0.565   0.565
  47  0.533   0.533
  48  0.551   0.551
  50  0.521   0.521
  51  0.521   0.521
  53  0.521   0.521
  54  0.496   0.496
  56  0.537   0.537
  57  0.509   0.509
  59  0.584   0.584
  60  0.532   0.532
  62  0.613   0.613
  63  0.461   0.461
  65  0.579   0.579
  66  0.540   0.540
  68  0.544   0.544
  69  0.558   0.558
  71  0.580   0.580
  72  0.561   0.561
  74  0.609   0.609
  75  0.609   0.609
  77  0.501   0.501
  78  0.504   0.504
  80  0.665   0.665
  81  0.490   0.490
  83  0.602   0.602
  84  0.554   0.554
  86  0.569   0.569
  87  0.566   0.566
  89  0.512   0.512
  90  0.533   0.533
  92  0.515   0.515
  93  0.562   0.562
  95  0.553   0.553
  96  0.549   0.549

mulliken: Qtot =      256.000

coxmol: Writing XMOL coordinates into file 32_h2o.xyz                                                          

siesta: Eigenvalues (eV):
  ik is       eps
   1  1  -29.8271  -29.3505  -28.9874  -28.6645  -28.4362  -28.4198  -28.1738  -27.8677  -27.8484  -27.7676
         -27.6238  -27.4349  -27.3200  -27.2277  -27.1767  -26.9973  -26.8635  -26.8512  -26.5878  -26.4465
  -26.3131  -26.1348  -26.0707  -26.0229  -25.9701  -25.9164  -25.1934  -24.9083  -24.6790  -24.6472
  -24.6030  -22.9049  -18.1543  -17.6730  -16.8480  -16.5016  -16.3704  -16.0471  -15.8930  -15.4981
  -15.4535  -15.3035  -15.2366  -15.0599  -15.0546  -14.9387  -14.7541  -14.6600  -14.6254  -14.4703
  -14.3845  -14.1327  -14.1042  -13.9699  -13.8850  -13.7037  -13.5792  -13.4250  -13.3063  -12.9699
  -12.8421  -12.8239  -12.6356  -12.5368  -12.4985  -12.3474  -11.7392  -11.6720  -11.6510  -11.5195
  -11.3668  -11.2016  -11.0986  -11.0683  -10.9357  -10.8486  -10.7814  -10.7140  -10.6811  -10.6002
  -10.4918  -10.4710  -10.3675  -10.2920  -10.2450  -10.1069  -10.0111   -9.9895   -9.9102   -9.8745
   -9.8185   -9.7581   -9.6273   -9.5732   -9.5157   -9.3929   -9.2985   -9.2398   -9.2154   -9.1565
   -9.1178   -8.9797   -8.9084   -8.8249   -8.7922   -8.7715   -8.7268   -8.5811   -8.4922   -8.3920
   -8.2149   -8.1899   -8.1364   -8.1004   -8.0555   -7.9201   -7.8478   -7.7842   -7.4762   -7.3776
   -7.3205   -6.9977   -6.7968   -6.6897   -6.5564   -6.3674   -5.9353   -4.2044   -0.8907   -0.4509
   -0.2408    1.0611    1.5026    1.8197    2.1801    2.3457    3.1652    3.2249    3.3331    3.4620
    3.6631    3.8124    3.9761    4.1110    4.3100    4.3461    4.4829    4.6604    4.7584    4.8581
    5.0320    5.1836    5.2175    5.2831    5.4353    5.4827    5.5450    5.7015    5.8665    6.0677
    6.2177    6.2621    6.3458    6.4609    6.5897    6.6170    6.7629    6.8494    7.0262    7.1565
    7.2074    7.2610    7.2977    7.5101    7.6198    7.8778    7.9275    8.0032    8.1929    8.1979
    8.8831    9.0159    9.0704    9.1406    9.1942    9.3916    9.6412    9.7230   10.5737   10.6552
   10.8712   12.9744
siesta: Fermi energy =      -3.069551 eV

siesta: Program's energy decomposition (eV):
siesta: Ebs     =     -3849.492728
siesta: Eions   =     26107.343322
siesta: Ena     =      6263.878119
siesta: Ekin    =     10808.713274
siesta: Enl     =     -1753.204354
siesta: Eso     =         0.000000
siesta: Edftu   =         0.000000
siesta: DEna    =      -581.088031
siesta: DUscf   =       109.148657
siesta: DUext   =         0.000000
siesta: Exc     =     -3669.448846
siesta: eta*DQ  =         0.000000
siesta: Emadel  =         0.000000
siesta: Emeta   =         0.000000
siesta: Emolmec =         0.000000
siesta: Ekinion =         0.000000
siesta: Eharris =    -14929.344503
siesta: Etot    =    -14929.344503
siesta: FreeEng =    -14929.344503

siesta: Final energy (eV):
siesta:  Band Struct. =   -3849.492728
siesta:       Kinetic =   10808.713274
siesta:       Hartree =    7785.830233
siesta:       Edftu   =       0.000000
siesta:       Eso     =       0.000000
siesta:    Ext. field =       0.000000
siesta:   Exch.-corr. =   -3669.448846
siesta:  Ion-electron =  -25568.436148
siesta:       Ion-ion =   -4286.003017
siesta:       Ekinion =       0.000000
siesta:         Total =  -14929.344503
siesta:         Fermi =      -3.069551

siesta: Atomic forces (eV/Ang):
siesta:      1    4.120328    1.466594    1.461570
siesta:      2   -3.151794    1.396634    0.700694
siesta:      3   -0.888701   -3.296584   -3.165341
siesta:      4   -0.549147   -4.590305   -3.617973
siesta:      5    2.783646    3.420487   -0.484345
siesta:      6   -1.959230    1.343633    3.649164
siesta:      7    1.439224   -1.873340   -3.448136
siesta:      8    3.424127   -1.045890    3.383822
siesta:      9   -2.735335    2.162249    1.746811
siesta:     10   -2.067392   -5.097054   -2.512351
siesta:     11    0.545605    2.315813   -2.938608
siesta:     12    2.435273    0.617048    5.081177
siesta:     13    2.198756   -4.320491    0.844487
siesta:     14    0.788279    3.091999   -2.545884
siesta:     15   -3.657914    1.595719    2.758983
siesta:     16    4.759773   -0.550691    0.367147
siesta:     17   -0.009446    0.103745    3.593810
siesta:     18   -2.723155   -0.923913   -3.506548
siesta:     19    2.817540    2.831535   -3.959053
siesta:     20    1.058060   -0.026046    5.123383
siesta:     21   -4.288578   -2.806210   -1.208530
siesta:     22    0.166923   -4.183021   -4.178035
siesta:     23   -0.467497    0.886580    4.458941
siesta:     24    0.151103    4.264323   -0.915469
siesta:     25    2.349552    3.732001   -0.111822
siesta:     26    1.738675   -4.422649   -0.048092
siesta:     27   -3.483253   -0.608731    1.279866
siesta:     28   -1.312161    4.577072    2.876442
siesta:     29   -1.263732    0.160325   -3.804202
siesta:     30    2.733087   -3.516065    1.739663
siesta:     31    0.656649   -1.728102   -0.638073
siesta:     32   -3.904035   -0.593068    2.074838
siesta:     33   -0.228751    3.118664   -2.628882
siesta:     34    1.342482    3.071178   -3.681499
siesta:     35    1.843936   -3.031021    3.411287
siesta:     36   -3.370331    1.679181    1.645570
siesta:     37   -1.174799    2.028239   -5.049503
siesta:     38   -0.547531   -0.707893    3.964896
siesta:     39    3.710522   -1.877154   -0.702316
siesta:     40   -2.401092   -4.617564   -0.051786
siesta:     41    0.452414    3.464677   -4.215024
siesta:     42    1.827122    0.960278    3.812153
siesta:     43    1.655323    0.890168   -4.770598
siesta:     44   -0.027050   -3.214970    2.141716
siesta:     45   -1.717970    2.947701    2.400592
siesta:     46   -1.823547   -2.404671    2.857493
siesta:     47    3.211561   -1.551530   -3.330298
siesta:     48   -0.859579    3.914140   -0.393251
siesta:     49    0.616534   -1.208289   -4.363101
siesta:     50   -1.197853    4.634863    1.913610
siesta:     51   -0.332449   -3.003192    3.592587
siesta:     52   -0.381715    3.647853   -3.916927
siesta:     53    1.098139    0.611625    4.234525
siesta:     54   -1.292626   -4.998223   -0.271540
siesta:     55   -3.763201    3.032304   -2.163013
siesta:     56    4.298695    1.617986    0.175014
siesta:     57   -0.417076   -4.860742    1.933453
siesta:     58   -3.473671    3.732556    0.813627
siesta:     59   -2.438609   -3.298208   -0.459938
siesta:     60    3.777030    0.087770   -2.790021
siesta:     61    3.901815    2.339246    3.629956
siesta:     62   -3.353821   -1.747260   -3.214809
siesta:     63   -4.643038    2.400515   -0.702675
siesta:     64    3.557255   -4.435350    1.802115
siesta:     65    2.269657    2.561658    0.405286
siesta:     66   -3.852664    0.969032    0.193458
siesta:     67    3.151993    2.951194    1.509023
siesta:     68   -3.224611   -1.457756    1.841959
siesta:     69   -0.174156   -0.613456   -4.519936
siesta:     70    3.739397    2.403721   -4.023397
siesta:     71    0.804213   -0.228496    3.328165
siesta:     72   -3.463745   -1.751310   -1.680605
siesta:     73   -5.319881    3.468598   -2.347559
siesta:     74    2.355138   -0.558568   -3.560936
siesta:     75    1.007215    5.916386    1.772057
siesta:     76    4.638311   -2.031588   -2.923773
siesta:     77   -4.566309    2.173469   -1.095851
siesta:     78   -0.155835   -0.533469    4.377095
siesta:     79   -4.411180   -0.512914    2.290600
siesta:     80    4.326802   -5.233830   -0.846697
siesta:     81    2.025194   -4.112073    2.669654
siesta:     82   -3.052861   -3.179341    2.434568
siesta:     83   -0.519814    3.706497    0.257625
siesta:     84    4.429998   -1.576169   -0.302050
siesta:     85   -5.506988    0.318781   -3.709798
siesta:     86    2.382552   -3.821797   -0.341299
siesta:     87    0.070697    1.843884    2.406745
siesta:     88    1.679607   -4.195024    3.509175
siesta:     89    2.031584    4.044177   -0.686930
siesta:     90   -3.802166    0.090546   -2.508410
siesta:     91   -1.157735    1.377037   -4.349059
siesta:     92    2.808640   -3.783695    1.915183
siesta:     93   -1.783390    2.265358    2.564841
siesta:     94    2.425229    5.915374   -0.258748
siesta:     95    1.892472   -2.410182   -2.884745
siesta:     96   -0.624553   -1.530170    4.868751
siesta: ----------------------------------------
siesta:    Tot   -0.023841    0.082346   -0.013857

siesta: Stress tensor (static) (eV/Ang**3):
siesta:    -0.121315    0.015096    0.001935
siesta:     0.015096   -0.119760    0.008863
siesta:     0.001935    0.008863   -0.132621

siesta: Cell volume =        960.044290 Ang**3

siesta: Pressure (static):
siesta:                Solid            Molecule  Units
siesta:           0.00135668          0.00061692  Ry/Bohr**3
siesta:           0.12456548          0.05664314  eV/Ang**3
siesta:         199.57805975         90.75328872  kBar
(Free)E+ p_basis*V_orbitals  =      -14917.297639
(Free)Eharris+ p_basis*V_orbitals  =      -14917.297639

cite: Please see "32_h2o.bib" for an exhaustive BiBTeX file.
cite: Please clearly indicate Siesta version in published work: v4.1-b4-351
cite: This calculation has made use of the following articles
cite: which are encouraged to be cited in a published work.
        Primary SIESTA paper
          DOI: www.doi.org/10.1088/0953-8984/14/11/302

>> End of run:  22-JAN-2021  21:45:06
Job completed
[1611348306.575484] [n-62-21-35:13992:0]          mpool.c:42   UCX  WARN  object 0x39fd700 was not returned to mpool ucp_requests
[1611348306.583772] [n-62-21-35:13996:0]          mpool.c:42   UCX  WARN  object 0x2a6b700 was not returned to mpool ucp_requests
[1611348306.583792] [n-62-21-35:14001:0]          mpool.c:42   UCX  WARN  object 0x2b81700 was not returned to mpool ucp_requests
[1611348306.584964] [n-62-21-35:13999:0]          mpool.c:42   UCX  WARN  object 0x2ca2700 was not returned to mpool ucp_requests
