Siesta Version  : v4.1-b4-351
Architecture    : x86_64-linux-n-62-26-19
Compiler version: GNU Fortran (GCC) 9.3.0
Compiler flags  : mpifort -m64 -fPIC -O3 -march=native -ftree-vectorize -fexpensive-optimizatioons -funroll-loops -fprefetch-loop-arrays -fno-second-underscore  -flto
PP flags        : -I/dtu/sw/dcc/SL73/2020-aug/generic/build-tools/1.0/include -I/dtu/sw/dcc/SL773/2020-aug/generic/gcc/9.3.0/include -I/dtu/sw/dcc/SL73/2020-aug/generic/gcc/9.3.0/include -I/dtu/sw/dcc/SL73/2020-aug/XeonE5-2660v3/gnu/9.3.0/zlib/1.2.11/include -I/dtu/sw/dcc/SL73/2020-aug/generic/numactl/2.0.12/include -I/dtu/sw/dcc/SL73/2020-aug/XeonE5-2660v3/gnu/9.3.0/libxml2/2.9.10/include -I/dtu/sw/dcc/SL73/2020-aug/XeonE5-2660v3/gnu/9.3.0/hwloc/2.2.0/include -I/dtu/sw/dcc/SL73/2020-aug/XeonE5-2660v3/gnu/9.3.0/knem/1.1.4/include -I/dtu/sw/dcc/SL73/2020-aug/XeonE5-2660v3/gnu/9.3.0/ucx/1.8.1/include -I/dtu/sw/dcc/SL73/2020-aug/XeonE5-2660v3/gnu/9.3.0/openmpi/4.0.4/include -I/dtu/sw/dcc/SL73/2020-aug/XeonE5-2660v3/gnu/9.3.0/szip/2.1.1/include -I/dtu/sw/dcc/SL73/2020-aug/XeonE5-2660v3/gnu/9.3.0/hdf5/1.12.0/include -I/dtu/sw/dcc/SL73/2020-aug/XeonE5-2660v3/gnu/9.3.0/pnetcdf/1.12.1/include -I/dtu/sw/dcc/SL73/2020-aug/generic/gen-zlib/1.2.11/include -I/dtu/sw/dcc/SL73/2020-aug/generic/openssl/1.1.1/include -I/dtu/sw/dcc/SL73/2020-aug/generic/libssh2/1.8.2/include -I/dtu/sw/dcc/SL73/2020-aug/generic/curl/7.65.1/include -I/dtu/sw/dcc/SL73/2020-aug/XeonE5-2660v3/gnu/9.3.0/netcdf/4.7.4/include -I/dtu/sw/dcc/SL73/2020-aug/XeonE5-2660v3/gnu/9.3.0/flook/0.8.1/include -I/dtu/sw/dcc/SL73/2020-aug/XeonE5-2660v3/gnu/9.3.0/fftw/3.3.8/include -I/dtu/sw/dcc/SL73/2020-aug/XeonE5-2660v3/gnu/9.3.0/parmetis/4.0.3/include -I/dtu/sw/dcc/SL73/2020-aug/XeonE5-2660v3/gnu/9.3.0/scalapack/2.1.0/include -I/dtu/sw/dcc/SL73/2020-aug/XeonE5-2660v3/gnu/9.3.0/lapack/3.9.0/include -I/dtu/sw/dcc/SL73/2020-aug/XeonE5-2660v3/gnu/9.3.0/blis/0.7.0/include -I/dtu/sw/dcc/SL73/2020-aug/XeonE5-2660v3/gnu/9.3.0/scotch/6.0.9/include -I/dtu/sw/dcc/SL73/2020-aug/XeonE5-2660v3/gnu/9.3.0/mumps/5.3.3/include -I/dtu/sw/dcc/SL73/2020-aug/XeonE5-2660v3/gnu/9.3.0/elpa/2020.05.001/include -DSIESTA__ELPA -DMPI -DFC_HAVE_FLUSH -DFC_HAVE_ABORT -DCDF -DCDF4 -DSIESTA__FLOOK  -DNCDF -DNCDF_4 -DNCDF_PARALLEL -DTS_NOCHECKS -DSIESTA__METIS -DSIESTA__MUMPS -DSIESTA__MRRR -I/dtu/sw/dcc/SL73/2020-aug/XeonE5-2660v3/gnu/9.3.0/elpa/2020.05.001/include/elpa
Libraries       : libncdf.a libfdict.a -lnetcdff -lnetcdf -lpnetcdf -lhdf5_hl -lhdf5 -lz  -lzmuumps -lmumps_common -lesmumps -lscotch -lscotcherr -lpord -lparmetis -lmetis -lelpa -lscalapack -llapack -lblis  -L/dtu/sw/dcc/SL73/2020-aug/XeonE5-2660v3/gnu/9.3.0/flook/0.8.1/lib -Wl,-rpath=/dtu/sw/dcc/SL73/2020-aug/XeonE5-2660v3/gnu/9.3.0/flook/0.8.1/lib -lflookall -ldl  -flto -fuse-linker-plugin  -lmetis
PARALLEL version
NetCDF support
NetCDF-4 support
NetCDF-4 MPI-IO support
METIS ordering support
Lua support

* Running on 8 nodes in parallel
>> Start of run:  22-JAN-2021  23:11:33

                           ***********************       
                           *  WELCOME TO SIESTA  *       
                           ***********************       

reinit: Reading from standard input
reinit: Dumped input in INPUT_TMP.25170
************************** Dump of input data file ****************************
SystemName          Water molecule -- md anneal
SystemLabel         h2o
NumberOfAtoms       3
NumberOfSpecies     2
MeshCutoff  100 Ry
%block ChemicalSpeciesLabel
 1  8  O      # Species index, atomic number, species label
 2  1  H
%endblock ChemicalSpeciesLabel
LatticeConstant 8.0 Ang
%block LatticeVectors
1.0 0.0 0.0
0.0 1.0 0.0
0.0 0.0 0.8
%endblock LatticeVectors
AtomicCoordinatesFormat  Ang
%block AtomicCoordinatesAndAtomicSpecies
 0.000  0.000  0.000  1
 0.757  0.586  0.000  2
-0.757  0.586  0.000  2
%endblock AtomicCoordinatesAndAtomicSpecies
Solution.Method       diagon
MeshCutoff             100 Ry
WriteCoorStep      .true.
WriteForces        .true.
WriteMDHistory     .true.
MD.TypeOfRun         anneal
MD.AnnealOption  Temperature
MD.InitialTemperature 100 K
MD.TargetTemperature 600 K
MD.LengthTimeStep  0.2 fs
MD.TauRelax       25 fs
MD.FinalTimeStep  200
************************** End of input data file *****************************

reinit: -----------------------------------------------------------------------
reinit: System Name: Water molecule -- md anneal
reinit: -----------------------------------------------------------------------
reinit: System Label: h2o
reinit: -----------------------------------------------------------------------

initatom: Reading input for the pseudopotentials and atomic orbitals ----------
Species number:   1 Atomic number:    8 Label: O
Species number:   2 Atomic number:    1 Label: H

Ground state valence configuration:   2s02  2p04
Reading pseudopotential information in formatted form from O.psf

Valence configuration for pseudopotential generation:
2s( 2.00) rc: 1.14
2p( 4.00) rc: 1.14
3d( 0.00) rc: 1.14
4f( 0.00) rc: 1.14
Ground state valence configuration:   1s01
Reading pseudopotential information in formatted form from H.psf

Valence configuration for pseudopotential generation:
1s( 1.00) rc: 1.25
2p( 0.00) rc: 1.25
3d( 0.00) rc: 1.25
4f( 0.00) rc: 1.25
For O, standard SIESTA heuristics set lmxkb to 3
 (one more than the basis l, including polarization orbitals).
Use PS.lmax or PS.KBprojectors blocks to override.
For H, standard SIESTA heuristics set lmxkb to 2
 (one more than the basis l, including polarization orbitals).
Use PS.lmax or PS.KBprojectors blocks to override.

<basis_specs>
===============================================================================
O                    Z=   8    Mass=  16.000        Charge= 0.17977+309
Lmxo=1 Lmxkb= 3    BasisType=split      Semic=F
L=0  Nsemic=0  Cnfigmx=2
          i=1  nzeta=2  polorb=0  (2s)
            splnorm:   0.15000    
               vcte:    0.0000    
               rinn:    0.0000    
               qcoe:    0.0000    
               qyuk:    0.0000    
               qwid:   0.10000E-01
                rcs:    0.0000      0.0000    
            lambdas:    1.0000      1.0000    
L=1  Nsemic=0  Cnfigmx=2
          i=1  nzeta=2  polorb=1  (2p)
            splnorm:   0.15000    
               vcte:    0.0000    
               rinn:    0.0000    
               qcoe:    0.0000    
               qyuk:    0.0000    
               qwid:   0.10000E-01
                rcs:    0.0000      0.0000    
            lambdas:    1.0000      1.0000    
-------------------------------------------------------------------------------
L=0  Nkbl=1  erefs: 0.17977+309
L=1  Nkbl=1  erefs: 0.17977+309
L=2  Nkbl=1  erefs: 0.17977+309
L=3  Nkbl=1  erefs: 0.17977+309
===============================================================================
</basis_specs>

atom: Called for O                     (Z =   8)

read_vps: Pseudopotential generation method:
read_vps: ATM3      Troullier-Martins                       
Valence charge for ps generation:    6.00000

xc_check: Exchange-correlation functional:
xc_check: Ceperley-Alder
V l=0 = -2*Zval/r beyond r=  1.1278
V l=1 = -2*Zval/r beyond r=  1.1278
V l=2 = -2*Zval/r beyond r=  1.1278
V l=3 = -2*Zval/r beyond r=  1.1138
All V_l potentials equal beyond r=  1.1278
This should be close to max(r_c) in ps generation
All pots = -2*Zval/r beyond r=  1.1278

VLOCAL1: 99.0% of the norm of Vloc inside     34.126 Ry
VLOCAL1: 99.9% of the norm of Vloc inside     77.774 Ry
atom: Maximum radius for 4*pi*r*r*local-pseudopot. charge    1.37759
atom: Maximum radius for r*vlocal+2*Zval:    1.18566
GHOST: No ghost state for L =  0
GHOST: No ghost state for L =  1
GHOST: No ghost state for L =  2
GHOST: No ghost state for L =  3

KBgen: Kleinman-Bylander projectors: 
   l= 0   rc=  1.294105   el= -1.742414   Ekb=  9.135903   kbcos=  0.326910
   l= 1   rc=  1.294105   el= -0.676589   Ekb= -8.124878   kbcos= -0.395047
   l= 2   rc=  1.448233   el=  0.002386   Ekb= -2.039267   kbcos= -0.003484
   l= 3   rc=  1.561052   el=  0.003508   Ekb= -0.799141   kbcos= -0.000344

KBgen: Total number of  Kleinman-Bylander projectors:   16
atom: -------------------------------------------------------------------------

atom: SANKEY-TYPE ORBITALS:
atom: Selected multiple-zeta basis: split     

SPLIT: Orbitals with angular momentum L= 0

SPLIT: Basis orbitals for state 2s

SPLIT: PAO cut-off radius determined from an
SPLIT: energy shift=  0.020000 Ry

   izeta = 1
                 lambda =    1.000000
                     rc =    3.305093
                 energy =   -1.723766
                kinetic =    1.614911
    potential(screened) =   -3.338677
       potential(ionic) =  -11.304675

   izeta = 2
                 rmatch =    2.510382
              splitnorm =    0.150000
                 energy =   -1.471299
                kinetic =    2.446434
    potential(screened) =   -3.917732
       potential(ionic) =  -12.476133

SPLIT: Orbitals with angular momentum L= 1

SPLIT: Basis orbitals for state 2p

SPLIT: PAO cut-off radius determined from an
SPLIT: energy shift=  0.020000 Ry

   izeta = 1
                 lambda =    1.000000
                     rc =    3.937239
                 energy =   -0.658841
                kinetic =    5.005986
    potential(screened) =   -5.664827
       potential(ionic) =  -13.452360

   izeta = 2
                 rmatch =    2.541963
              splitnorm =    0.150000
                 energy =   -0.367441
                kinetic =    7.530509
    potential(screened) =   -7.897949
       potential(ionic) =  -16.611953

POLgen: Perturbative polarization orbital with L=  2

POLgen: Polarization orbital for state 2p

   izeta = 1
                     rc =    3.937239
                 energy =    2.398520
                kinetic =    4.716729
    potential(screened) =   -2.318209
       potential(ionic) =   -8.603170
atom: Total number of Sankey-type orbitals: 13

atm_pop: Valence configuration (for local Pseudopot. screening):
 2s( 2.00)                                                            
 2p( 4.00)                                                            
Vna: chval, zval:    6.00000   6.00000

Vna:  Cut-off radius for the neutral-atom potential:   3.937239

atom: _________________________________________________________________________

<basis_specs>
===============================================================================
H                    Z=   1    Mass=  1.0100        Charge= 0.17977+309
Lmxo=0 Lmxkb= 2    BasisType=split      Semic=F
L=0  Nsemic=0  Cnfigmx=1
          i=1  nzeta=2  polorb=1  (1s)
            splnorm:   0.15000    
               vcte:    0.0000    
               rinn:    0.0000    
               qcoe:    0.0000    
               qyuk:    0.0000    
               qwid:   0.10000E-01
                rcs:    0.0000      0.0000    
            lambdas:    1.0000      1.0000    
-------------------------------------------------------------------------------
L=0  Nkbl=1  erefs: 0.17977+309
L=1  Nkbl=1  erefs: 0.17977+309
L=2  Nkbl=1  erefs: 0.17977+309
===============================================================================
</basis_specs>

atom: Called for H                     (Z =   1)

read_vps: Pseudopotential generation method:
read_vps: ATM3      Troullier-Martins                       
Valence charge for ps generation:    1.00000

xc_check: Exchange-correlation functional:
xc_check: Ceperley-Alder
V l=0 = -2*Zval/r beyond r=  1.2343
V l=1 = -2*Zval/r beyond r=  1.2189
V l=2 = -2*Zval/r beyond r=  1.2189
All V_l potentials equal beyond r=  1.2343
This should be close to max(r_c) in ps generation
All pots = -2*Zval/r beyond r=  1.2343

VLOCAL1: 99.0% of the norm of Vloc inside     28.493 Ry
VLOCAL1: 99.9% of the norm of Vloc inside     64.935 Ry
atom: Maximum radius for 4*pi*r*r*local-pseudopot. charge    1.45251
atom: Maximum radius for r*vlocal+2*Zval:    1.21892
GHOST: No ghost state for L =  0
GHOST: No ghost state for L =  1
GHOST: No ghost state for L =  2

KBgen: Kleinman-Bylander projectors: 
   l= 0   rc=  1.364359   el= -0.467325   Ekb= -2.005361   kbcos= -0.336422
   l= 1   rc=  1.434438   el=  0.001430   Ekb= -0.501708   kbcos= -0.021697
   l= 2   rc=  1.470814   el=  0.002365   Ekb= -0.190555   kbcos= -0.002281

KBgen: Total number of  Kleinman-Bylander projectors:    9
atom: -------------------------------------------------------------------------

atom: SANKEY-TYPE ORBITALS:
atom: Selected multiple-zeta basis: split     

SPLIT: Orbitals with angular momentum L= 0

SPLIT: Basis orbitals for state 1s

SPLIT: PAO cut-off radius determined from an
SPLIT: energy shift=  0.020000 Ry

   izeta = 1
                 lambda =    1.000000
                     rc =    4.828263
                 energy =   -0.449375
                kinetic =    0.929372
    potential(screened) =   -1.378747
       potential(ionic) =   -1.915047

   izeta = 2
                 rmatch =    3.854947
              splitnorm =    0.150000
                 energy =   -0.336153
                kinetic =    1.505294
    potential(screened) =   -1.841447
       potential(ionic) =   -2.413582

POLgen: Perturbative polarization orbital with L=  1

POLgen: Polarization orbital for state 1s

   izeta = 1
                     rc =    4.828263
                 energy =    0.706972
                kinetic =    1.396397
    potential(screened) =   -0.689424
       potential(ionic) =   -1.169792
atom: Total number of Sankey-type orbitals:  5

atm_pop: Valence configuration (for local Pseudopot. screening):
 1s( 1.00)                                                            
Vna: chval, zval:    1.00000   1.00000

Vna:  Cut-off radius for the neutral-atom potential:   4.828263

atom: _________________________________________________________________________

prinput: Basis input ----------------------------------------------------------

PAO.BasisType split     

%block ChemicalSpeciesLabel
    1    8 O                       # Species index, atomic number, species label
    2    1 H                       # Species index, atomic number, species label
%endblock ChemicalSpeciesLabel

%block PAO.Basis                 # Define Basis set
O                     2                    # Species label, number of l-shells
 n=2   0   2                         # n, l, Nzeta 
   3.305      2.510   
   1.000      1.000   
 n=2   1   2 P   1                   # n, l, Nzeta, Polarization, NzetaPol
   3.937      2.542   
   1.000      1.000   
H                     1                    # Species label, number of l-shells
 n=1   0   2 P   1                   # n, l, Nzeta, Polarization, NzetaPol
   4.828      3.855   
   1.000      1.000   
%endblock PAO.Basis

prinput: ----------------------------------------------------------------------

Dumping basis to NetCDF file O.ion.nc
Dumping basis to NetCDF file H.ion.nc
coor:   Atomic-coordinates input format  =     Cartesian coordinates
coor:                                          (in Angstroms)

siesta: Atomic coordinates (Bohr) and species
siesta:      0.00000   0.00000   0.00000  1        1
siesta:      1.43052   1.10738   0.00000  2        2
siesta:     -1.43052   1.10738   0.00000  2        3

siesta: System type = molecule  

initatomlists: Number of atoms, orbitals, and projectors:      3    23    34

siesta: ******************** Simulation parameters ****************************
siesta:
siesta: The following are some of the parameters of the simulation.
siesta: A complete list of the parameters used, including default values,
siesta: can be found in file out.fdf
siesta:
redata: Spin configuration                          = none
redata: Number of spin components                   = 1
redata: Time-Reversal Symmetry                      = T
redata: Spin spiral                                 = F
redata: Long output                                 =   F
redata: Number of Atomic Species                    =        2
redata: Charge density info will appear in .RHO file
redata: Write Mulliken Pop.                         = NO
redata: Matel table size (NRTAB)                    =     1024
redata: Mesh Cutoff                                 =   100.0000 Ry
redata: Net charge of the system                    =     0.0000 |e|
redata: Min. number of SCF Iter                     =        0
redata: Max. number of SCF Iter                     =     1000
redata: SCF convergence failure will abort job
redata: SCF mix quantity                            = Hamiltonian
redata: Mix DM or H after convergence               =   F
redata: Recompute H after scf cycle                 =   F
redata: Mix DM in first SCF step                    =   T
redata: Write Pulay info on disk                    =   F
redata: New DM Occupancy tolerance                  = 0.000000000001
redata: No kicks to SCF
redata: DM Mixing Weight for Kicks                  =     0.5000
redata: Require Harris convergence for SCF          =   F
redata: Harris energy tolerance for SCF             =     0.000100 eV
redata: Require DM convergence for SCF              =   T
redata: DM tolerance for SCF                        =     0.000100
redata: Require EDM convergence for SCF             =   F
redata: EDM tolerance for SCF                       =     0.001000 eV
redata: Require H convergence for SCF               =   T
redata: Hamiltonian tolerance for SCF               =     0.001000 eV
redata: Require (free) Energy convergence for SCF   =   F
redata: (free) Energy tolerance for SCF             =     0.000100 eV
redata: Using Saved Data (generic)                  =   F
redata: Use continuation files for DM               =   F
redata: Neglect nonoverlap interactions             =   F
redata: Method of Calculation                       = Diagonalization
redata: Electronic Temperature                      =   299.9869 K
redata: Fix the spin of the system                  =   F
redata: Dynamics option                             = Annealing MD run
redata: Initial MD time step                        =        1
redata:   Final MD time step                        =      200
redata: Length of MD time step                      =     0.2000 fs
redata: Initial Temperature of MD run               =   100.0000 K
redata: Annealing Option                            = Temperature
redata: Target Temperature                          =   600.0000 Kelvin
redata: Annealing Relaxation Time                   =    25.0000 fs
mix.SCF: Pulay mixing                            = Pulay
mix.SCF:    Variant                              = stable
mix.SCF:    History steps                        = 2
mix.SCF:    Linear mixing weight                 =     0.250000
mix.SCF:    Mixing weight                        =     0.250000
mix.SCF:    SVD condition                        = 0.1000E-07
redata: Save all siesta data in one NC              =   F
redata: ***********************************************************************

%block SCF.Mixers
  Pulay
%endblock SCF.Mixers

%block SCF.Mixer.Pulay
  # Mixing method
  method pulay
  variant stable

  # Mixing options
  weight 0.2500
  weight.linear 0.2500
  history 2
%endblock SCF.Mixer.Pulay

Size of DM history Fstack: 1
Total number of electrons:     8.000000
Total ionic charge:     8.000000

* ProcessorY, Blocksize:    2   3


* Orbital distribution balance (max,min):     3     2

 Kpoints in:            1 . Kpoints trimmed:            1

siesta: k-grid: Number of k-points =     1
siesta: k-grid: Cutoff (effective) =     3.200 Ang
siesta: k-grid: Supercell and displacements
siesta: k-grid:    1   0   0      0.000
siesta: k-grid:    0   1   0      0.000
siesta: k-grid:    0   0   1      0.000

diag: Algorithm                                     = D&C
diag: Parallel over k                               =   F
diag: Use parallel 2D distribution                  =   T
diag: Parallel block-size                           = 3
diag: Parallel distribution                         =     2 x     4
diag: Used triangular part                          = Lower
diag: Absolute tolerance                            =  0.100E-15
diag: Orthogonalization factor                      =  0.100E-05
diag: Memory factor                                 =  1.0000


ts: **************************************************************
ts: Save H and S matrices                           =    F
ts: Save DM and EDM matrices                        =    F
ts: Only save the overlap matrix S                  =    F
ts: **************************************************************

************************ Begin: TS CHECKS AND WARNINGS ************************
************************ End: TS CHECKS AND WARNINGS **************************


                     ====================================
                        Begin MD step =      1
                     ====================================

outcoor: Atomic coordinates (Ang):                          
    0.00000000    0.00000000    0.00000000   1       1  O
    0.75700000    0.58600000    0.00000000   2       2  H
   -0.75700000    0.58600000    0.00000000   2       3  H

outcell: Unit cell vectors (Ang):
        8.000000    0.000000    0.000000
        0.000000    8.000000    0.000000
        0.000000    0.000000    6.400000

outcell: Cell vector modules (Ang)   :    8.000000    8.000000    6.400000
outcell: Cell angles (23,13,12) (deg):     90.0000     90.0000     90.0000
outcell: Cell volume (Ang**3)        :    409.6000
<dSpData1D:S at geom step 1
  <sparsity:sparsity for geom step 1
    nrows_g=23 nrows=3 sparsity=.1304 nnzs=69, refcount: 7>
  <dData1D:(new from dSpData1D) n=69, refcount: 1>
refcount: 1>
new_DM -- step:     1
Initializing Density Matrix...
DM filled with atomic data:
<dSpData2D:DM initialized from atoms
  <sparsity:sparsity for geom step 1
    nrows_g=23 nrows=3 sparsity=.1304 nnzs=69, refcount: 8>
  <dData2D:DM n=69 m=1, refcount: 1>
refcount: 1>
No. of atoms with KB's overlaping orbs in proc 0. Max # of overlaps:       3      23
New grid distribution:   1
           1       1:   25    1:   13    1:    5
           2       1:   25    1:   13    6:   10
           3       1:   25    1:   13   11:   15
           4       1:   25    1:   13   16:   20
           5       1:   25   14:   25    1:    5
           6       1:   25   14:   25    6:   10
           7       1:   25   14:   25   11:   15
           8       1:   25   14:   25   16:   20

InitMesh: MESH =    50 x    50 x    40 =      100000
InitMesh: (bp) =    25 x    25 x    20 =       12500
InitMesh: Mesh cutoff (required, used) =   100.000   107.960 Ry
ExtMesh (bp) on 0 =    57 x    45 x    37 =       94905
New grid distribution:   2
           1       7:   25    6:   25    1:    6
           2       7:   25    1:    5    1:    6
           3       7:   25    1:    5    7:   20
           4       1:    6    1:    5    7:   20
           5       1:    6    6:   25    1:    6
           6       1:    6    1:    5    1:    6
           7       7:   25    6:   25    7:   20
           8       1:    6    6:   25    7:   20
New grid distribution:   3
           1       1:    9    7:   25    1:    7
           2      11:   25    1:    6    1:    8
           3       1:    9    7:   25    8:   20
           4      11:   25    1:    6    9:   20
           5      10:   25    7:   25    1:    7
           6       1:   10    1:    6    9:   20
           7      10:   25    7:   25    8:   20
           8       1:   10    1:    6    1:    8
Setting up quadratic distribution...
ExtMesh (bp) on 0 =    51 x    52 x    38 =      100776
PhiOnMesh: Number of (b)points on node 0 =                 2280
PhiOnMesh: nlist on node 0 =                 5165

stepf: Fermi-Dirac step function

siesta: Program's energy decomposition (eV):
siesta: Ebs     =       -82.119669
siesta: Eions   =       815.854478
siesta: Ena     =       175.155695
siesta: Ekin    =       377.531314
siesta: Enl     =       -69.272321
siesta: Eso     =         0.000000
siesta: Edftu   =         0.000000
siesta: DEna    =       -17.548253
siesta: DUscf   =         2.107478
siesta: DUext   =         0.000000
siesta: Exc     =      -117.110096
siesta: eta*DQ  =         0.000000
siesta: Emadel  =         0.000000
siesta: Emeta   =         0.000000
siesta: Emolmec =         0.000000
siesta: Ekinion =         0.000000
siesta: Eharris =      -466.820729
siesta: Etot    =      -464.990661
siesta: FreeEng =      -464.990661

        iscf     Eharris(eV)        E_KS(eV)     FreeEng(eV)     dDmax    Ef(eV) dHmax(eV)
   scf:    1     -466.820729     -464.990661     -464.990661  1.433758 -4.421566  7.362816
timer: Routine,Calls,Time,% = IterSCF        1       0.021   1.60
   scf:    2     -466.222677     -465.720515     -465.720515  0.059267 -3.209848  2.873260
   scf:    3     -465.834534     -465.817252     -465.817252  0.028397 -2.390871  0.344099
   scf:    4     -465.822842     -465.820237     -465.820237  0.010402 -2.315513  0.265656
   scf:    5     -465.822394     -465.821750     -465.821750  0.021596 -2.104162  0.064327
   scf:    6     -465.821894     -465.821832     -465.821832  0.000473 -2.074057  0.029944
   scf:    7     -465.821907     -465.821875     -465.821875  0.000931 -2.076615  0.020268
   scf:    8     -465.821906     -465.821892     -465.821892  0.000897 -2.081282  0.012963
   scf:    9     -465.821896     -465.821895     -465.821895  0.000620 -2.087336  0.005007
   scf:   10     -465.821894     -465.821895     -465.821895  0.000099 -2.089924  0.002495
   scf:   11     -465.821895     -465.821895     -465.821895  0.000039 -2.090352  0.001641
   scf:   12     -465.821895     -465.821895     -465.821895  0.000042 -2.090515  0.000723

SCF Convergence by DM+H criterion
max |DM_out - DM_in|         :     0.0000415343
max |H_out - H_in|      (eV) :     0.0007228882
SCF cycle converged after 12 iterations

Using DM_out to compute the final energy and forces
No. of atoms with KB's overlaping orbs in proc 0. Max # of overlaps:       3      23

siesta: E_KS(eV) =             -465.8219

siesta: E_KS - E_eggbox =      -465.8219

siesta: Atomic forces (eV/Ang):
     1    0.000000   -0.692488    0.000000
     2    0.665998    0.319146   -0.000000
     3   -0.665998    0.319146   -0.000000
----------------------------------------
   Tot   -0.000000   -0.054197    0.000000
----------------------------------------
   Max    0.692488
   Res    0.417713    sqrt( Sum f_i^2 / 3N )
----------------------------------------
   Max    0.692488    constrained

Stress tensor Voigt[x,y,z,yz,xz,xy] (kbar):       -4.15       -1.86       -0.74       -0.00        0.01        0.06
(Free)E + p*V (eV/cell)     -465.2465
Target enthalpy (eV/cell)     -465.8219

siesta: Stress tensor (static) (eV/Ang**3):
        -0.002568    0.000000    0.000000
        -0.000000   -0.001104    0.000000
        -0.000000    0.000000   -0.000417

siesta: Pressure (static):          2.18394413  kBar

siesta: Stress tensor (total) (eV/Ang**3):
        -0.002593    0.000037    0.000008
         0.000037   -0.001163   -0.000000
         0.000008   -0.000000   -0.000459

siesta: Pressure (total):          2.25087060  kBar
 Anneal: Kinetic Energy=    1.8999984809538108E-003
 Anneal: Velocity scale factor =    1.0198039033265363     

siesta: Temp_ion =     104.000 K

                     ====================================
                        Begin MD step =      2
                     ====================================

outcoor: Atomic coordinates (Ang):                          
    0.00008099   -0.00018484    0.00016513   1       1  O
    0.75519821    0.58911924   -0.00004511   2       2  H
   -0.75648121    0.58579869   -0.00257077   2       3  H

outcell: Unit cell vectors (Ang):
        8.000000    0.000000    0.000000
        0.000000    8.000000    0.000000
        0.000000    0.000000    6.400000

outcell: Cell vector modules (Ang)   :    8.000000    8.000000    6.400000
outcell: Cell angles (23,13,12) (deg):     90.0000     90.0000     90.0000
outcell: Cell volume (Ang**3)        :    409.6000
<dSpData1D:S at geom step 2
  <sparsity:sparsity for geom step 2
    nrows_g=23 nrows=3 sparsity=.1304 nnzs=69, refcount: 7>
  <dData1D:(new from dSpData1D) n=69, refcount: 1>
refcount: 1>
new_DM -- step:     2
Re-using DM from previous geometries...
Number of DMs in history: 1
 DM extrapolation coefficients: 
1   1.00000
New DM after history re-use:
<dSpData2D:SpM extrapolated using coords
  <sparsity:sparsity for geom step 2
    nrows_g=23 nrows=3 sparsity=.1304 nnzs=69, refcount: 9>
  <dData2D:(temp array for extrapolation) n=69 m=1, refcount: 1>
refcount: 1>
No. of atoms with KB's overlaping orbs in proc 0. Max # of overlaps:       3      23
New grid distribution:   1
           1       1:   25    1:   13    1:    5
           2       1:   25    1:   13    6:   10
           3       1:   25    1:   13   11:   15
           4       1:   25    1:   13   16:   20
           5       1:   25   14:   25    1:    5
           6       1:   25   14:   25    6:   10
           7       1:   25   14:   25   11:   15
           8       1:   25   14:   25   16:   20

InitMesh: MESH =    50 x    50 x    40 =      100000
InitMesh: (bp) =    25 x    25 x    20 =       12500
InitMesh: Mesh cutoff (required, used) =   100.000   107.960 Ry
ExtMesh (bp) on 0 =    57 x    45 x    37 =       94905
New grid distribution:   2
           1       7:   25    6:   25    1:    6
           2       7:   25    1:    5    1:    6
           3       7:   25    1:    5    7:   20
           4       1:    6    1:    5    7:   20
           5       1:    6    6:   25    1:    6
           6       1:    6    1:    5    1:    6
           7       7:   25    6:   25    7:   20
           8       1:    6    6:   25    7:   20
New grid distribution:   3
           1       1:    9    7:   25    1:    7
           2      11:   25    1:    6    1:    8
           3       1:    9    7:   25    8:   20
           4      11:   25    1:    6    9:   20
           5      10:   25    7:   25    1:    7
           6       1:   10    1:    6    9:   20
           7      10:   25    7:   25    8:   20
           8       1:   10    1:    6    1:    8
Setting up quadratic distribution...
ExtMesh (bp) on 0 =    51 x    52 x    38 =      100776
PhiOnMesh: Number of (b)points on node 0 =                 2280
PhiOnMesh: nlist on node 0 =                 5156

        iscf     Eharris(eV)        E_KS(eV)     FreeEng(eV)     dDmax    Ef(eV) dHmax(eV)
   scf:    1     -465.820646     -465.821359     -465.821359  0.002278 -2.098912  0.016957
   scf:    2     -465.821327     -465.821356     -465.821356  0.000630 -2.109251  0.024773
   scf:    3     -465.821376     -465.821370     -465.821370  0.000373 -2.103105  0.001670
   scf:    4     -465.821371     -465.821370     -465.821370  0.000018 -2.103108  0.000899

SCF Convergence by DM+H criterion
max |DM_out - DM_in|         :     0.0000176379
max |H_out - H_in|      (eV) :     0.0008993732
SCF cycle converged after 4 iterations

Using DM_out to compute the final energy and forces
No. of atoms with KB's overlaping orbs in proc 0. Max # of overlaps:       3      23

siesta: E_KS(eV) =             -465.8214

siesta: Atomic forces (eV/Ang):
     1    0.039640   -0.668423   -0.001615
     2    0.656755    0.295737    0.000513
     3   -0.697799    0.321893   -0.003537
----------------------------------------
   Tot   -0.001403   -0.050793   -0.004639
----------------------------------------
   Max    0.697799
   Res    0.416026    sqrt( Sum f_i^2 / 3N )
----------------------------------------
   Max    0.697799    constrained

Stress tensor Voigt[x,y,z,yz,xz,xy] (kbar):       -4.22       -1.82       -0.74        0.01        0.00        0.14
(Free)E + p*V (eV/cell)     -465.2438
Target enthalpy (eV/cell)     -465.8214

siesta: Stress tensor (static) (eV/Ang**3):
        -0.002608    0.000052   -0.000005
         0.000050   -0.001075    0.000003
        -0.000007    0.000004   -0.000417

siesta: Pressure (static):          2.18966923  kBar

siesta: Stress tensor (total) (eV/Ang**3):
        -0.002634    0.000091    0.000004
         0.000089   -0.001136    0.000002
         0.000002    0.000003   -0.000461

siesta: Pressure (total):          2.25927276  kBar
 Anneal: Kinetic Energy=    2.0153877464232010E-003
 Anneal: Velocity scale factor =    1.0184555970121587     

siesta: Temp_ion =     110.025 K

                     ====================================
                        Begin MD step =      3
                     ====================================

outcoor: Atomic coordinates (Ang):                          
    0.00016593   -0.00039281    0.00033631   1       1  O
    0.75358366    0.59246787   -0.00009169   2       2  H
   -0.75621288    0.58571433   -0.00523780   2       3  H

outcell: Unit cell vectors (Ang):
        8.000000    0.000000    0.000000
        0.000000    8.000000    0.000000
        0.000000    0.000000    6.400000

outcell: Cell vector modules (Ang)   :    8.000000    8.000000    6.400000
outcell: Cell angles (23,13,12) (deg):     90.0000     90.0000     90.0000
outcell: Cell volume (Ang**3)        :    409.6000
<dSpData1D:S at geom step 3
  <sparsity:sparsity for geom step 3
    nrows_g=23 nrows=3 sparsity=.1304 nnzs=69, refcount: 7>
  <dData1D:(new from dSpData1D) n=69, refcount: 1>
refcount: 1>
new_DM -- step:     3
Re-using DM from previous geometries...
Number of DMs in history: 1
 DM extrapolation coefficients: 
1   1.00000
New DM after history re-use:
<dSpData2D:SpM extrapolated using coords
  <sparsity:sparsity for geom step 3
    nrows_g=23 nrows=3 sparsity=.1304 nnzs=69, refcount: 9>
  <dData2D:(temp array for extrapolation) n=69 m=1, refcount: 1>
refcount: 1>
No. of atoms with KB's overlaping orbs in proc 0. Max # of overlaps:       3      23
New grid distribution:   1
           1       1:   25    1:   13    1:    5
           2       1:   25    1:   13    6:   10
           3       1:   25    1:   13   11:   15
           4       1:   25    1:   13   16:   20
           5       1:   25   14:   25    1:    5
           6       1:   25   14:   25    6:   10
           7       1:   25   14:   25   11:   15
           8       1:   25   14:   25   16:   20

InitMesh: MESH =    50 x    50 x    40 =      100000
InitMesh: (bp) =    25 x    25 x    20 =       12500
InitMesh: Mesh cutoff (required, used) =   100.000   107.960 Ry
ExtMesh (bp) on 0 =    57 x    45 x    37 =       94905
New grid distribution:   2
           1       7:   25    6:   25    1:    6
           2       7:   25    1:    5    1:    6
           3       7:   25    1:    5    7:   20
           4       1:    6    1:    5    7:   20
           5       1:    6    6:   25    1:    6
           6       1:    6    1:    5    1:    6
           7       7:   25    6:   25    7:   20
           8       1:    6    6:   25    7:   20
New grid distribution:   3
           1       1:    9    7:   25    1:    7
           2      11:   25    1:    6    1:    8
           3       1:    9    7:   25    8:   20
           4      11:   25    1:    6    9:   20
           5      10:   25    7:   25    1:    7
           6       1:   10    1:    6    9:   20
           7      10:   25    7:   25    8:   20
           8       1:   10    1:    6    1:    8
Setting up quadratic distribution...
ExtMesh (bp) on 0 =    51 x    52 x    38 =      100776
PhiOnMesh: Number of (b)points on node 0 =                 2280
PhiOnMesh: nlist on node 0 =                 5156

        iscf     Eharris(eV)        E_KS(eV)     FreeEng(eV)     dDmax    Ef(eV) dHmax(eV)
   scf:    1     -465.823715     -465.821174     -465.821174  0.002340 -2.110708  0.022557
   scf:    2     -465.821107     -465.821163     -465.821163  0.000869 -2.124629  0.034505
   scf:    3     -465.821198     -465.821188     -465.821188  0.000523 -2.116170  0.001877
   scf:    4     -465.821189     -465.821189     -465.821189  0.000019 -2.116228  0.001036
   scf:    5     -465.821189     -465.821189     -465.821189  0.000030 -2.116338  0.000277

SCF Convergence by DM+H criterion
max |DM_out - DM_in|         :     0.0000296370
max |H_out - H_in|      (eV) :     0.0002767768
SCF cycle converged after 5 iterations

Using DM_out to compute the final energy and forces
No. of atoms with KB's overlaping orbs in proc 0. Max # of overlaps:       3      23

siesta: E_KS(eV) =             -465.8212

siesta: Atomic forces (eV/Ang):
     1    0.080967   -0.624984   -0.004859
     2    0.634658    0.261128    0.000913
     3   -0.718516    0.316914   -0.005460
----------------------------------------
   Tot   -0.002892   -0.046941   -0.009406
----------------------------------------
   Max    0.718516
   Res    0.406187    sqrt( Sum f_i^2 / 3N )
----------------------------------------
   Max    0.718516    constrained

Stress tensor Voigt[x,y,z,yz,xz,xy] (kbar):       -4.21       -1.74       -0.74        0.01       -0.01        0.23
(Free)E + p*V (eV/cell)     -465.2508
Target enthalpy (eV/cell)     -465.8212

siesta: Stress tensor (static) (eV/Ang**3):
        -0.002604    0.000107   -0.000009
         0.000106   -0.001018    0.000005
        -0.000010    0.000005   -0.000417

siesta: Pressure (static):          2.15759682  kBar

siesta: Stress tensor (total) (eV/Ang**3):
        -0.002625    0.000144   -0.000005
         0.000144   -0.001089    0.000007
        -0.000005    0.000007   -0.000464

siesta: Pressure (total):          2.23123236  kBar
 Anneal: Kinetic Energy=    2.1538850736061367E-003
 Anneal: Velocity scale factor =    1.0170260858342948     

siesta: Temp_ion =     117.256 K

                     ====================================
                        Begin MD step =      4
                     ====================================

outcoor: Atomic coordinates (Ang):                          
    0.00025574   -0.00062308    0.00051321   1       1  O
    0.75215901    0.59603128   -0.00013950   2       2  H
   -0.75621263    0.58574936   -0.00799776   2       3  H

outcell: Unit cell vectors (Ang):
        8.000000    0.000000    0.000000
        0.000000    8.000000    0.000000
        0.000000    0.000000    6.400000

outcell: Cell vector modules (Ang)   :    8.000000    8.000000    6.400000
outcell: Cell angles (23,13,12) (deg):     90.0000     90.0000     90.0000
outcell: Cell volume (Ang**3)        :    409.6000
<dSpData1D:S at geom step 4
  <sparsity:sparsity for geom step 4
    nrows_g=23 nrows=3 sparsity=.1304 nnzs=69, refcount: 7>
  <dData1D:(new from dSpData1D) n=69, refcount: 1>
refcount: 1>
new_DM -- step:     4
Re-using DM from previous geometries...
Number of DMs in history: 1
 DM extrapolation coefficients: 
1   1.00000
New DM after history re-use:
<dSpData2D:SpM extrapolated using coords
  <sparsity:sparsity for geom step 4
    nrows_g=23 nrows=3 sparsity=.1304 nnzs=69, refcount: 9>
  <dData2D:(temp array for extrapolation) n=69 m=1, refcount: 1>
refcount: 1>
No. of atoms with KB's overlaping orbs in proc 0. Max # of overlaps:       3      23
New grid distribution:   1
           1       1:   25    1:   13    1:    5
           2       1:   25    1:   13    6:   10
           3       1:   25    1:   13   11:   15
           4       1:   25    1:   13   16:   20
           5       1:   25   14:   25    1:    5
           6       1:   25   14:   25    6:   10
           7       1:   25   14:   25   11:   15
           8       1:   25   14:   25   16:   20

InitMesh: MESH =    50 x    50 x    40 =      100000
InitMesh: (bp) =    25 x    25 x    20 =       12500
InitMesh: Mesh cutoff (required, used) =   100.000   107.960 Ry
ExtMesh (bp) on 0 =    57 x    45 x    37 =       94905
New grid distribution:   2
           1       7:   25    6:   25    1:    6
           2       7:   25    1:    5    1:    6
           3       7:   25    1:    5    7:   20
           4       1:    6    1:    5    7:   20
           5       1:    6    6:   25    1:    6
           6       1:    6    1:    5    1:    6
           7       7:   25    6:   25    7:   20
           8       1:    6    6:   25    7:   20
New grid distribution:   3
           1       1:    9    7:   25    1:    7
           2      11:   25    1:    6    1:    8
           3       1:    9    7:   25    8:   20
           4      11:   25    1:    6    9:   20
           5      10:   25    7:   25    1:    7
           6       1:   10    1:    6    9:   20
           7      10:   25    7:   25    8:   20
           8       1:   10    1:    6    1:    8
Setting up quadratic distribution...
ExtMesh (bp) on 0 =    51 x    52 x    38 =      100776
PhiOnMesh: Number of (b)points on node 0 =                 2280
PhiOnMesh: nlist on node 0 =                 5158

        iscf     Eharris(eV)        E_KS(eV)     FreeEng(eV)     dDmax    Ef(eV) dHmax(eV)
   scf:    1     -465.827174     -465.821313     -465.821313  0.002455 -2.122919  0.026966
   scf:    2     -465.821212     -465.821294     -465.821294  0.001060 -2.139630  0.041837
   scf:    3     -465.821345     -465.821331     -465.821331  0.000639 -2.129428  0.002101
   scf:    4     -465.821332     -465.821332     -465.821332  0.000020 -2.129518  0.001165
   scf:    5     -465.821332     -465.821332     -465.821332  0.000032 -2.129679  0.000328

SCF Convergence by DM+H criterion
max |DM_out - DM_in|         :     0.0000321333
max |H_out - H_in|      (eV) :     0.0003276830
SCF cycle converged after 5 iterations

Using DM_out to compute the final energy and forces
No. of atoms with KB's overlaping orbs in proc 0. Max # of overlaps:       3      23

siesta: E_KS(eV) =             -465.8213

siesta: Atomic forces (eV/Ang):
     1    0.120749   -0.563655   -0.007457
     2    0.599949    0.218713    0.001534
     3   -0.724650    0.302120   -0.008144
----------------------------------------
   Tot   -0.003952   -0.042823   -0.014068
----------------------------------------
   Max    0.724650
   Res    0.388241    sqrt( Sum f_i^2 / 3N )
----------------------------------------
   Max    0.724650    constrained

Stress tensor Voigt[x,y,z,yz,xz,xy] (kbar):       -4.11       -1.63       -0.75        0.02       -0.02        0.31
(Free)E + p*V (eV/cell)     -465.2681
Target enthalpy (eV/cell)     -465.8213

siesta: Stress tensor (static) (eV/Ang**3):
        -0.002553    0.000159   -0.000015
         0.000159   -0.000935    0.000007
        -0.000015    0.000007   -0.000417

siesta: Pressure (static):          2.08536095  kBar

siesta: Stress tensor (total) (eV/Ang**3):
        -0.002568    0.000194   -0.000014
         0.000194   -0.001016    0.000011
        -0.000015    0.000012   -0.000467

siesta: Pressure (total):          2.16383596  kBar
 Anneal: Kinetic Energy=    2.3138384069902279E-003
 Anneal: Velocity scale factor =    1.0155860352950075     

siesta: Temp_ion =     125.607 K

                     ====================================
                        Begin MD step =      5
                     ====================================

outcoor: Atomic coordinates (Ang):                          
    0.00035129   -0.00087424    0.00069543   1       1  O
    0.75092109    0.59979004   -0.00018822   2       2  H
   -0.75649157    0.58590189   -0.01084689   2       3  H

outcell: Unit cell vectors (Ang):
        8.000000    0.000000    0.000000
        0.000000    8.000000    0.000000
        0.000000    0.000000    6.400000

outcell: Cell vector modules (Ang)   :    8.000000    8.000000    6.400000
outcell: Cell angles (23,13,12) (deg):     90.0000     90.0000     90.0000
outcell: Cell volume (Ang**3)        :    409.6000
<dSpData1D:S at geom step 5
  <sparsity:sparsity for geom step 5
    nrows_g=23 nrows=3 sparsity=.1304 nnzs=69, refcount: 7>
  <dData1D:(new from dSpData1D) n=69, refcount: 1>
refcount: 1>
new_DM -- step:     5
Re-using DM from previous geometries...
Number of DMs in history: 1
 DM extrapolation coefficients: 
1   1.00000
New DM after history re-use:
<dSpData2D:SpM extrapolated using coords
  <sparsity:sparsity for geom step 5
    nrows_g=23 nrows=3 sparsity=.1304 nnzs=69, refcount: 9>
  <dData2D:(temp array for extrapolation) n=69 m=1, refcount: 1>
refcount: 1>
No. of atoms with KB's overlaping orbs in proc 0. Max # of overlaps:       3      23
New grid distribution:   1
           1       1:   25    1:   13    1:    5
           2       1:   25    1:   13    6:   10
           3       1:   25    1:   13   11:   15
           4       1:   25    1:   13   16:   20
           5       1:   25   14:   25    1:    5
           6       1:   25   14:   25    6:   10
           7       1:   25   14:   25   11:   15
           8       1:   25   14:   25   16:   20

InitMesh: MESH =    50 x    50 x    40 =      100000
InitMesh: (bp) =    25 x    25 x    20 =       12500
InitMesh: Mesh cutoff (required, used) =   100.000   107.960 Ry
ExtMesh (bp) on 0 =    57 x    45 x    37 =       94905
New grid distribution:   2
           1       7:   25    6:   25    1:    6
           2       7:   25    1:    5    1:    6
           3       7:   25    1:    5    7:   20
           4       1:    6    1:    5    7:   20
           5       1:    6    6:   25    1:    6
           6       1:    6    1:    5    1:    6
           7       7:   25    6:   25    7:   20
           8       1:    6    6:   25    7:   20
New grid distribution:   3
           1       1:    9    7:   25    1:    7
           2      11:   25    1:    6    1:    8
           3       1:    9    7:   25    8:   20
           4      11:   25    1:    6    9:   20
           5      10:   25    7:   25    1:    7
           6       1:   10    1:    6    9:   20
           7      10:   25    7:   25    8:   20
           8       1:   10    1:    6    1:    8
Setting up quadratic distribution...
ExtMesh (bp) on 0 =    51 x    52 x    38 =      100776
PhiOnMesh: Number of (b)points on node 0 =                 2280
PhiOnMesh: nlist on node 0 =                 5160

        iscf     Eharris(eV)        E_KS(eV)     FreeEng(eV)     dDmax    Ef(eV) dHmax(eV)
   scf:    1     -465.830895     -465.821735     -465.821735  0.002544 -2.135189  0.031889
   scf:    2     -465.821587     -465.821705     -465.821705  0.001266 -2.154948  0.050412
   scf:    3     -465.821778     -465.821759     -465.821759  0.000768 -2.142790  0.002205
   scf:    4     -465.821759     -465.821759     -465.821759  0.000021 -2.142911  0.001231
   scf:    5     -465.821759     -465.821759     -465.821759  0.000034 -2.143123  0.000380

SCF Convergence by DM+H criterion
max |DM_out - DM_in|         :     0.0000342865
max |H_out - H_in|      (eV) :     0.0003796542
SCF cycle converged after 5 iterations

Using DM_out to compute the final energy and forces
No. of atoms with KB's overlaping orbs in proc 0. Max # of overlaps:       3      23

siesta: E_KS(eV) =             -465.8218

siesta: Atomic forces (eV/Ang):
     1    0.158241   -0.484170   -0.010452
     2    0.553132    0.167997    0.002237
     3   -0.716556    0.277768   -0.010603
----------------------------------------
   Tot   -0.005182   -0.038405   -0.018818
----------------------------------------
   Max    0.716556
   Res    0.362778    sqrt( Sum f_i^2 / 3N )
----------------------------------------
   Max    0.716556    constrained

Stress tensor Voigt[x,y,z,yz,xz,xy] (kbar):       -3.95       -1.47       -0.75        0.03       -0.04        0.39
(Free)E + p*V (eV/cell)     -465.2959
Target enthalpy (eV/cell)     -465.8218

siesta: Stress tensor (static) (eV/Ang**3):
        -0.002452    0.000209   -0.000019
         0.000209   -0.000825    0.000009
        -0.000020    0.000009   -0.000417

siesta: Pressure (static):          1.97275288  kBar

siesta: Stress tensor (total) (eV/Ang**3):
        -0.002464    0.000242   -0.000024
         0.000242   -0.000916    0.000016
        -0.000025    0.000016   -0.000471

siesta: Pressure (total):          2.05681710  kBar
 Anneal: Kinetic Energy=    2.4914499278980975E-003
 Anneal: Velocity scale factor =    1.0142017365830984     

siesta: Temp_ion =     134.880 K

                     ====================================
                        Begin MD step =      6
                     ====================================

outcoor: Atomic coordinates (Ang):                          
    0.00045339   -0.00114429    0.00088258   1       1  O
    0.74986083    0.60372020   -0.00023745   2       2  H
   -0.75705413    0.58616563   -0.01378102   2       3  H

outcell: Unit cell vectors (Ang):
        8.000000    0.000000    0.000000
        0.000000    8.000000    0.000000
        0.000000    0.000000    6.400000

outcell: Cell vector modules (Ang)   :    8.000000    8.000000    6.400000
outcell: Cell angles (23,13,12) (deg):     90.0000     90.0000     90.0000
outcell: Cell volume (Ang**3)        :    409.6000
<dSpData1D:S at geom step 6
  <sparsity:sparsity for geom step 6
    nrows_g=23 nrows=3 sparsity=.1304 nnzs=69, refcount: 7>
  <dData1D:(new from dSpData1D) n=69, refcount: 1>
refcount: 1>
new_DM -- step:     6
Re-using DM from previous geometries...
Number of DMs in history: 1
 DM extrapolation coefficients: 
1   1.00000
New DM after history re-use:
<dSpData2D:SpM extrapolated using coords
  <sparsity:sparsity for geom step 6
    nrows_g=23 nrows=3 sparsity=.1304 nnzs=69, refcount: 9>
  <dData2D:(temp array for extrapolation) n=69 m=1, refcount: 1>
refcount: 1>
No. of atoms with KB's overlaping orbs in proc 0. Max # of overlaps:       3      23
New grid distribution:   1
           1       1:   25    1:   13    1:    5
           2       1:   25    1:   13    6:   10
           3       1:   25    1:   13   11:   15
           4       1:   25    1:   13   16:   20
           5       1:   25   14:   25    1:    5
           6       1:   25   14:   25    6:   10
           7       1:   25   14:   25   11:   15
           8       1:   25   14:   25   16:   20

InitMesh: MESH =    50 x    50 x    40 =      100000
InitMesh: (bp) =    25 x    25 x    20 =       12500
InitMesh: Mesh cutoff (required, used) =   100.000   107.960 Ry
ExtMesh (bp) on 0 =    57 x    45 x    37 =       94905
New grid distribution:   2
           1       7:   25    6:   25    1:    6
           2       7:   25    1:    5    1:    6
           3       7:   25    1:    5    7:   20
           4       1:    6    1:    5    7:   20
           5       1:    6    6:   25    1:    6
           6       1:    6    1:    5    1:    6
           7       7:   25    6:   25    7:   20
           8       1:    6    6:   25    7:   20
New grid distribution:   3
           1       1:    9    7:   25    1:    7
           2      11:   25    1:    6    1:    8
           3       1:    9    7:   25    8:   20
           4      11:   25    1:    6    9:   20
           5      10:   25    7:   25    1:    7
           6       1:   10    1:    6    9:   20
           7      10:   25    7:   25    8:   20
           8       1:   10    1:    6    1:    8
Setting up quadratic distribution...
ExtMesh (bp) on 0 =    51 x    52 x    38 =      100776
PhiOnMesh: Number of (b)points on node 0 =                 2280
PhiOnMesh: nlist on node 0 =                 5159

        iscf     Eharris(eV)        E_KS(eV)     FreeEng(eV)     dDmax    Ef(eV) dHmax(eV)
   scf:    1     -465.834693     -465.822350     -465.822350  0.002632 -2.147586  0.036552
   scf:    2     -465.822147     -465.822307     -465.822307  0.001463 -2.170220  0.058626
   scf:    3     -465.822406     -465.822380     -465.822380  0.000892 -2.156213  0.002258
   scf:    4     -465.822381     -465.822380     -465.822380  0.000022 -2.156360  0.001267
   scf:    5     -465.822381     -465.822380     -465.822380  0.000036 -2.156618  0.000427

SCF Convergence by DM+H criterion
max |DM_out - DM_in|         :     0.0000362657
max |H_out - H_in|      (eV) :     0.0004266390
SCF cycle converged after 5 iterations

Using DM_out to compute the final energy and forces
No. of atoms with KB's overlaping orbs in proc 0. Max # of overlaps:       3      23

siesta: E_KS(eV) =             -465.8224

siesta: Atomic forces (eV/Ang):
     1    0.192192   -0.387503   -0.014048
     2    0.495524    0.109923    0.003097
     3   -0.694298    0.244067   -0.012731
----------------------------------------
   Tot   -0.006581   -0.033513   -0.023682
----------------------------------------
   Max    0.694298
   Res    0.331111    sqrt( Sum f_i^2 / 3N )
----------------------------------------
   Max    0.694298    constrained

Stress tensor Voigt[x,y,z,yz,xz,xy] (kbar):       -3.71       -1.27       -0.76        0.03       -0.06        0.46
(Free)E + p*V (eV/cell)     -465.3335
Target enthalpy (eV/cell)     -465.8224

siesta: Stress tensor (static) (eV/Ang**3):
        -0.002305    0.000256   -0.000024
         0.000255   -0.000689    0.000010
        -0.000025    0.000010   -0.000417

siesta: Pressure (static):          1.82214370  kBar

siesta: Stress tensor (total) (eV/Ang**3):
        -0.002316    0.000287   -0.000034
         0.000287   -0.000791    0.000020
        -0.000035    0.000020   -0.000474

siesta: Pressure (total):          1.91241414  kBar
 Anneal: Kinetic Energy=    2.6803471617766602E-003
 Anneal: Velocity scale factor =    1.0129291272517347     

siesta: Temp_ion =     144.742 K

                     ====================================
                        Begin MD step =      7
                     ====================================

outcoor: Atomic coordinates (Ang):                          
    0.00056280   -0.00143073    0.00107423   1       1  O
    0.74896358    0.60779422   -0.00028677   2       2  H
   -0.75789804    0.58652997   -0.01679591   2       3  H

outcell: Unit cell vectors (Ang):
        8.000000    0.000000    0.000000
        0.000000    8.000000    0.000000
        0.000000    0.000000    6.400000

outcell: Cell vector modules (Ang)   :    8.000000    8.000000    6.400000
outcell: Cell angles (23,13,12) (deg):     90.0000     90.0000     90.0000
outcell: Cell volume (Ang**3)        :    409.6000
<dSpData1D:S at geom step 7
  <sparsity:sparsity for geom step 7
    nrows_g=23 nrows=3 sparsity=.1304 nnzs=69, refcount: 7>
  <dData1D:(new from dSpData1D) n=69, refcount: 1>
refcount: 1>
new_DM -- step:     7
Re-using DM from previous geometries...
Number of DMs in history: 1
 DM extrapolation coefficients: 
1   1.00000
New DM after history re-use:
<dSpData2D:SpM extrapolated using coords
  <sparsity:sparsity for geom step 7
    nrows_g=23 nrows=3 sparsity=.1304 nnzs=69, refcount: 9>
  <dData2D:(temp array for extrapolation) n=69 m=1, refcount: 1>
refcount: 1>
No. of atoms with KB's overlaping orbs in proc 0. Max # of overlaps:       3      23
New grid distribution:   1
           1       1:   25    1:   13    1:    5
           2       1:   25    1:   13    6:   10
           3       1:   25    1:   13   11:   15
           4       1:   25    1:   13   16:   20
           5       1:   25   14:   25    1:    5
           6       1:   25   14:   25    6:   10
           7       1:   25   14:   25   11:   15
           8       1:   25   14:   25   16:   20

InitMesh: MESH =    50 x    50 x    40 =      100000
InitMesh: (bp) =    25 x    25 x    20 =       12500
InitMesh: Mesh cutoff (required, used) =   100.000   107.960 Ry
ExtMesh (bp) on 0 =    57 x    45 x    37 =       94905
New grid distribution:   2
           1       7:   25    6:   25    1:    6
           2       7:   25    1:    5    1:    6
           3       7:   25    1:    5    7:   20
           4       1:    6    1:    5    7:   20
           5       1:    6    6:   25    1:    6
           6       1:    6    1:    5    1:    6
           7       7:   25    6:   25    7:   20
           8       1:    6    6:   25    7:   20
New grid distribution:   3
           1       1:    9    7:   25    1:    7
           2      11:   25    1:    6    1:    8
           3       1:    9    7:   25    8:   20
           4      11:   25    1:    6    9:   20
           5      10:   25    7:   25    1:    7
           6       1:   10    1:    6    9:   20
           7      10:   25    7:   25    8:   20
           8       1:   10    1:    6    1:    8
Setting up quadratic distribution...
ExtMesh (bp) on 0 =    51 x    52 x    38 =      100776
PhiOnMesh: Number of (b)points on node 0 =                 2280
PhiOnMesh: nlist on node 0 =                 5160

        iscf     Eharris(eV)        E_KS(eV)     FreeEng(eV)     dDmax    Ef(eV) dHmax(eV)
   scf:    1     -465.838374     -465.823053     -465.823053  0.003053 -2.160100  0.040826
   scf:    2     -465.822791     -465.822996     -465.822996  0.001645 -2.185355  0.066258
   scf:    3     -465.823122     -465.823088     -465.823088  0.001007 -2.169656  0.002272
   scf:    4     -465.823089     -465.823089     -465.823089  0.000023 -2.169824  0.001279
   scf:    5     -465.823089     -465.823089     -465.823089  0.000039 -2.170123  0.000467

SCF Convergence by DM+H criterion
max |DM_out - DM_in|         :     0.0000392432
max |H_out - H_in|      (eV) :     0.0004673114
SCF cycle converged after 5 iterations

Using DM_out to compute the final energy and forces
No. of atoms with KB's overlaping orbs in proc 0. Max # of overlaps:       3      23

siesta: E_KS(eV) =             -465.8231

siesta: Atomic forces (eV/Ang):
     1    0.221692   -0.275388   -0.018279
     2    0.429339    0.045644    0.004084
     3   -0.658370    0.201436   -0.014337
----------------------------------------
   Tot   -0.007339   -0.028308   -0.028532
----------------------------------------
   Max    0.658370
   Res    0.295519    sqrt( Sum f_i^2 / 3N )
----------------------------------------
   Max    0.658370    constrained

Stress tensor Voigt[x,y,z,yz,xz,xy] (kbar):       -3.41       -1.03       -0.76        0.04       -0.07        0.52
(Free)E + p*V (eV/cell)     -465.3796
Target enthalpy (eV/cell)     -465.8231

siesta: Stress tensor (static) (eV/Ang**3):
        -0.002119    0.000297   -0.000027
         0.000297   -0.000531    0.000010
        -0.000028    0.000010   -0.000417

siesta: Pressure (static):          1.63792971  kBar

siesta: Stress tensor (total) (eV/Ang**3):
        -0.002130    0.000327   -0.000043
         0.000327   -0.000641    0.000023
        -0.000044    0.000023   -0.000477

siesta: Pressure (total):          1.73480073  kBar
 Anneal: Kinetic Energy=    2.8723704243019876E-003
 Anneal: Velocity scale factor =    1.0118056903086794     

siesta: Temp_ion =     154.768 K

                     ====================================
                        Begin MD step =      8
                     ====================================

outcoor: Atomic coordinates (Ang):                          
    0.00068016   -0.00173060    0.00126996   1       1  O
    0.74820993    0.61198196   -0.00033569   2       2  H
   -0.75901458    0.58698023   -0.01988750   2       3  H

outcell: Unit cell vectors (Ang):
        8.000000    0.000000    0.000000
        0.000000    8.000000    0.000000
        0.000000    0.000000    6.400000

outcell: Cell vector modules (Ang)   :    8.000000    8.000000    6.400000
outcell: Cell angles (23,13,12) (deg):     90.0000     90.0000     90.0000
outcell: Cell volume (Ang**3)        :    409.6000
<dSpData1D:S at geom step 8
  <sparsity:sparsity for geom step 8
    nrows_g=23 nrows=3 sparsity=.1304 nnzs=69, refcount: 7>
  <dData1D:(new from dSpData1D) n=69, refcount: 1>
refcount: 1>
new_DM -- step:     8
Re-using DM from previous geometries...
Number of DMs in history: 1
 DM extrapolation coefficients: 
1   1.00000
New DM after history re-use:
<dSpData2D:SpM extrapolated using coords
  <sparsity:sparsity for geom step 8
    nrows_g=23 nrows=3 sparsity=.1304 nnzs=69, refcount: 9>
  <dData2D:(temp array for extrapolation) n=69 m=1, refcount: 1>
refcount: 1>
No. of atoms with KB's overlaping orbs in proc 0. Max # of overlaps:       3      23
New grid distribution:   1
           1       1:   25    1:   13    1:    5
           2       1:   25    1:   13    6:   10
           3       1:   25    1:   13   11:   15
           4       1:   25    1:   13   16:   20
           5       1:   25   14:   25    1:    5
           6       1:   25   14:   25    6:   10
           7       1:   25   14:   25   11:   15
           8       1:   25   14:   25   16:   20

InitMesh: MESH =    50 x    50 x    40 =      100000
InitMesh: (bp) =    25 x    25 x    20 =       12500
InitMesh: Mesh cutoff (required, used) =   100.000   107.960 Ry
ExtMesh (bp) on 0 =    57 x    45 x    37 =       94905
New grid distribution:   2
           1       7:   25    6:   25    1:    6
           2       7:   25    1:    5    1:    6
           3       7:   25    1:    5    7:   20
           4       1:    6    1:    5    7:   20
           5       1:    6    6:   25    1:    6
           6       1:    6    1:    5    1:    6
           7       7:   25    6:   25    7:   20
           8       1:    6    6:   25    7:   20
New grid distribution:   3
           1       1:    9    7:   25    1:    7
           2      11:   25    1:    6    1:    8
           3       1:    9    7:   25    8:   20
           4      11:   25    1:    6    9:   20
           5      10:   25    7:   25    1:    7
           6       1:   10    1:    6    9:   20
           7      10:   25    7:   25    8:   20
           8       1:   10    1:    6    1:    8
Setting up quadratic distribution...
ExtMesh (bp) on 0 =    51 x    52 x    38 =      100776
PhiOnMesh: Number of (b)points on node 0 =                 2280
PhiOnMesh: nlist on node 0 =                 5153

        iscf     Eharris(eV)        E_KS(eV)     FreeEng(eV)     dDmax    Ef(eV) dHmax(eV)
   scf:    1     -465.841732     -465.823715     -465.823715  0.003424 -2.172723  0.044600
   scf:    2     -465.823394     -465.823644     -465.823644  0.001808 -2.200281  0.073117
   scf:    3     -465.823797     -465.823756     -465.823756  0.001111 -2.183086  0.002253
   scf:    4     -465.823757     -465.823757     -465.823757  0.000027 -2.183272  0.001271
   scf:    5     -465.823757     -465.823757     -465.823757  0.000047 -2.183605  0.000501

SCF Convergence by DM+H criterion
max |DM_out - DM_in|         :     0.0000473508
max |H_out - H_in|      (eV) :     0.0005007555
SCF cycle converged after 5 iterations

Using DM_out to compute the final energy and forces
No. of atoms with KB's overlaping orbs in proc 0. Max # of overlaps:       3      23

siesta: E_KS(eV) =             -465.8238

siesta: Atomic forces (eV/Ang):
     1    0.245042   -0.150039   -0.023505
     2    0.355495   -0.023587    0.005189
     3   -0.609318    0.150596   -0.015186
----------------------------------------
   Tot   -0.008782   -0.023029   -0.033502
----------------------------------------
   Max    0.609318
   Res    0.259111    sqrt( Sum f_i^2 / 3N )
----------------------------------------
   Max    0.609318    constrained

Stress tensor Voigt[x,y,z,yz,xz,xy] (kbar):       -3.05       -0.75       -0.77        0.04       -0.08        0.58
(Free)E + p*V (eV/cell)     -465.4339
Target enthalpy (eV/cell)     -465.8238

siesta: Stress tensor (static) (eV/Ang**3):
        -0.001893    0.000332   -0.000030
         0.000332   -0.000351    0.000009
        -0.000031    0.000010   -0.000417

siesta: Pressure (static):          1.42126753  kBar

siesta: Stress tensor (total) (eV/Ang**3):
        -0.001905    0.000360   -0.000052
         0.000360   -0.000469    0.000024
        -0.000053    0.000025   -0.000481

siesta: Pressure (total):          1.52484835  kBar
 Anneal: Kinetic Energy=    3.0583543886725023E-003
 Anneal: Velocity scale factor =    1.0108510944344076     

siesta: Temp_ion =     164.478 K

                     ====================================
                        Begin MD step =      9
                     ====================================

outcoor: Atomic coordinates (Ang):                          
    0.00080600   -0.00204061    0.00146937   1       1  O
    0.74757626    0.61625153   -0.00038367   2       2  H
   -0.76038903    0.58749802   -0.02305200   2       3  H

outcell: Unit cell vectors (Ang):
        8.000000    0.000000    0.000000
        0.000000    8.000000    0.000000
        0.000000    0.000000    6.400000

outcell: Cell vector modules (Ang)   :    8.000000    8.000000    6.400000
outcell: Cell angles (23,13,12) (deg):     90.0000     90.0000     90.0000
outcell: Cell volume (Ang**3)        :    409.6000
<dSpData1D:S at geom step 9
  <sparsity:sparsity for geom step 9
    nrows_g=23 nrows=3 sparsity=.1304 nnzs=69, refcount: 7>
  <dData1D:(new from dSpData1D) n=69, refcount: 1>
refcount: 1>
new_DM -- step:     9
Re-using DM from previous geometries...
Number of DMs in history: 1
 DM extrapolation coefficients: 
1   1.00000
New DM after history re-use:
<dSpData2D:SpM extrapolated using coords
  <sparsity:sparsity for geom step 9
    nrows_g=23 nrows=3 sparsity=.1304 nnzs=69, refcount: 9>
  <dData2D:(temp array for extrapolation) n=69 m=1, refcount: 1>
refcount: 1>
No. of atoms with KB's overlaping orbs in proc 0. Max # of overlaps:       3      23
New grid distribution:   1
           1       1:   25    1:   13    1:    5
           2       1:   25    1:   13    6:   10
           3       1:   25    1:   13   11:   15
           4       1:   25    1:   13   16:   20
           5       1:   25   14:   25    1:    5
           6       1:   25   14:   25    6:   10
           7       1:   25   14:   25   11:   15
           8       1:   25   14:   25   16:   20

InitMesh: MESH =    50 x    50 x    40 =      100000
InitMesh: (bp) =    25 x    25 x    20 =       12500
InitMesh: Mesh cutoff (required, used) =   100.000   107.960 Ry
ExtMesh (bp) on 0 =    57 x    45 x    37 =       94905
New grid distribution:   2
           1       7:   25    6:   25    1:    6
           2       7:   25    1:    5    1:    6
           3       7:   25    1:    5    7:   20
           4       1:    6    1:    5    7:   20
           5       1:    6    6:   25    1:    6
           6       1:    6    1:    5    1:    6
           7       7:   25    6:   25    7:   20
           8       1:    6    6:   25    7:   20
New grid distribution:   3
           1       1:    9    7:   25    1:    7
           2      11:   25    1:    6    1:    8
           3       1:    9    7:   25    8:   20
           4      11:   25    1:    6    9:   20
           5      10:   25    7:   25    1:    7
           6       1:   10    1:    6    9:   20
           7      10:   25    7:   25    8:   20
           8       1:   10    1:    6    1:    8
Setting up quadratic distribution...
ExtMesh (bp) on 0 =    51 x    52 x    38 =      100776
PhiOnMesh: Number of (b)points on node 0 =                 2280
PhiOnMesh: nlist on node 0 =                 5153

        iscf     Eharris(eV)        E_KS(eV)     FreeEng(eV)     dDmax    Ef(eV) dHmax(eV)
   scf:    1     -465.844575     -465.824212     -465.824212  0.003737 -2.185441  0.047790
   scf:    2     -465.823835     -465.824127     -465.824127  0.001948 -2.214927  0.079050
   scf:    3     -465.824306     -465.824259     -465.824259  0.001200 -2.196468  0.002206
   scf:    4     -465.824259     -465.824259     -465.824259  0.000031 -2.196666  0.001247
   scf:    5     -465.824260     -465.824259     -465.824259  0.000055 -2.197027  0.000526

SCF Convergence by DM+H criterion
max |DM_out - DM_in|         :     0.0000547143
max |H_out - H_in|      (eV) :     0.0005262960
SCF cycle converged after 5 iterations

Using DM_out to compute the final energy and forces
No. of atoms with KB's overlaping orbs in proc 0. Max # of overlaps:       3      23

siesta: E_KS(eV) =             -465.8243

siesta: Atomic forces (eV/Ang):
     1    0.262244   -0.013885   -0.029735
     2    0.276525   -0.096353    0.006403
     3   -0.549072    0.092643   -0.015239
----------------------------------------
   Tot   -0.010304   -0.017595   -0.038570
----------------------------------------
   Max    0.549072
   Res    0.227531    sqrt( Sum f_i^2 / 3N )
----------------------------------------
   Max    0.549072    constrained

Stress tensor Voigt[x,y,z,yz,xz,xy] (kbar):       -2.65       -0.45       -0.78        0.04       -0.10        0.62
(Free)E + p*V (eV/cell)     -465.4945
Target enthalpy (eV/cell)     -465.8243

siesta: Stress tensor (static) (eV/Ang**3):
        -0.001639    0.000360   -0.000032
         0.000360   -0.000153    0.000007
        -0.000033    0.000007   -0.000418

siesta: Pressure (static):          1.17992735  kBar

siesta: Stress tensor (total) (eV/Ang**3):
        -0.001653    0.000387   -0.000060
         0.000387   -0.000278    0.000024
        -0.000060    0.000024   -0.000484

siesta: Pressure (total):          1.29000696  kBar
 Anneal: Kinetic Energy=    3.2290444098813363E-003
 Anneal: Velocity scale factor =    1.0100711005188394     

siesta: Temp_ion =     173.390 K

                     ====================================
                        Begin MD step =     10
                     ====================================

outcoor: Atomic coordinates (Ang):                          
    0.00094072   -0.00235720    0.00167207   1       1  O
    0.74703579    0.62057019   -0.00043017   2       2  H
   -0.76200155    0.58806173   -0.02628608   2       3  H

outcell: Unit cell vectors (Ang):
        8.000000    0.000000    0.000000
        0.000000    8.000000    0.000000
        0.000000    0.000000    6.400000

outcell: Cell vector modules (Ang)   :    8.000000    8.000000    6.400000
outcell: Cell angles (23,13,12) (deg):     90.0000     90.0000     90.0000
outcell: Cell volume (Ang**3)        :    409.6000
<dSpData1D:S at geom step 10
  <sparsity:sparsity for geom step 10
    nrows_g=23 nrows=3 sparsity=.1304 nnzs=69, refcount: 7>
  <dData1D:(new from dSpData1D) n=69, refcount: 1>
refcount: 1>
new_DM -- step:    10
Re-using DM from previous geometries...
Number of DMs in history: 1
 DM extrapolation coefficients: 
1   1.00000
New DM after history re-use:
<dSpData2D:SpM extrapolated using coords
  <sparsity:sparsity for geom step 10
    nrows_g=23 nrows=3 sparsity=.1304 nnzs=69, refcount: 9>
  <dData2D:(temp array for extrapolation) n=69 m=1, refcount: 1>
refcount: 1>
No. of atoms with KB's overlaping orbs in proc 0. Max # of overlaps:       3      23
New grid distribution:   1
           1       1:   25    1:   13    1:    5
           2       1:   25    1:   13    6:   10
           3       1:   25    1:   13   11:   15
           4       1:   25    1:   13   16:   20
           5       1:   25   14:   25    1:    5
           6       1:   25   14:   25    6:   10
           7       1:   25   14:   25   11:   15
           8       1:   25   14:   25   16:   20

InitMesh: MESH =    50 x    50 x    40 =      100000
InitMesh: (bp) =    25 x    25 x    20 =       12500
InitMesh: Mesh cutoff (required, used) =   100.000   107.960 Ry
ExtMesh (bp) on 0 =    57 x    45 x    37 =       94905
New grid distribution:   2
           1       7:   25    6:   25    1:    6
           2       7:   25    1:    5    1:    6
           3       7:   25    1:    5    7:   20
           4       1:    6    1:    5    7:   20
           5       1:    6    6:   25    1:    6
           6       1:    6    1:    5    1:    6
           7       7:   25    6:   25    7:   20
           8       1:    6    6:   25    7:   20
New grid distribution:   3
           1       1:    9    7:   25    1:    7
           2      11:   25    1:    6    1:    8
           3       1:    9    7:   25    8:   20
           4      11:   25    1:    6    9:   20
           5      10:   25    7:   25    1:    7
           6       1:   10    1:    6    9:   20
           7      10:   25    7:   25    8:   20
           8       1:   10    1:    6    1:    8
Setting up quadratic distribution...
ExtMesh (bp) on 0 =    51 x    52 x    38 =      100776
PhiOnMesh: Number of (b)points on node 0 =                 2280
PhiOnMesh: nlist on node 0 =                 5150

        iscf     Eharris(eV)        E_KS(eV)     FreeEng(eV)     dDmax    Ef(eV) dHmax(eV)
   scf:    1     -465.846726     -465.824422     -465.824422  0.003982 -2.198237  0.050325
   scf:    2     -465.823995     -465.824325     -465.824325  0.002061 -2.229239  0.083920
   scf:    3     -465.824527     -465.824473     -465.824473  0.001274 -2.209773  0.002137
   scf:    4     -465.824474     -465.824474     -465.824474  0.000035 -2.209979  0.001209
   scf:    5     -465.824474     -465.824474     -465.824474  0.000061 -2.210361  0.000544

SCF Convergence by DM+H criterion
max |DM_out - DM_in|         :     0.0000611683
max |H_out - H_in|      (eV) :     0.0005437226
SCF cycle converged after 5 iterations

Using DM_out to compute the final energy and forces
No. of atoms with KB's overlaping orbs in proc 0. Max # of overlaps:       3      23

siesta: E_KS(eV) =             -465.8245

siesta: Atomic forces (eV/Ang):
     1    0.272671    0.130575   -0.037043
     2    0.194313   -0.171279    0.007712
     3   -0.478892    0.028701   -0.014357
----------------------------------------
   Tot   -0.011907   -0.012002   -0.043689
----------------------------------------
   Max    0.478892
   Res    0.208245    sqrt( Sum f_i^2 / 3N )
----------------------------------------
   Max    0.478892    constrained

Stress tensor Voigt[x,y,z,yz,xz,xy] (kbar):       -2.21       -0.11       -0.78        0.04       -0.11        0.65
(Free)E + p*V (eV/cell)     -465.5601
Target enthalpy (eV/cell)     -465.8245

siesta: Stress tensor (static) (eV/Ang**3):
        -0.001359    0.000381   -0.000032
         0.000380    0.000058    0.000003
        -0.000033    0.000003   -0.000418

siesta: Pressure (static):          0.91810841  kBar

siesta: Stress tensor (total) (eV/Ang**3):
        -0.001378    0.000406   -0.000066
         0.000406   -0.000071    0.000022
        -0.000066    0.000022   -0.000488

siesta: Pressure (total):          1.03415238  kBar
 Anneal: Kinetic Energy=    3.3759855867865384E-003
 Anneal: Velocity scale factor =    1.0094623878293891     

siesta: Temp_ion =     181.062 K

                     ====================================
                        Begin MD step =     11
                     ====================================

outcoor: Atomic coordinates (Ang):                          
    0.00108458   -0.00267663    0.00187772   1       1  O
    0.74655950    0.62490498   -0.00047460   2       2  H
   -0.76382799    0.58864711   -0.02958687   2       3  H

outcell: Unit cell vectors (Ang):
        8.000000    0.000000    0.000000
        0.000000    8.000000    0.000000
        0.000000    0.000000    6.400000

outcell: Cell vector modules (Ang)   :    8.000000    8.000000    6.400000
outcell: Cell angles (23,13,12) (deg):     90.0000     90.0000     90.0000
outcell: Cell volume (Ang**3)        :    409.6000
<dSpData1D:S at geom step 11
  <sparsity:sparsity for geom step 11
    nrows_g=23 nrows=3 sparsity=.1304 nnzs=69, refcount: 7>
  <dData1D:(new from dSpData1D) n=69, refcount: 1>
refcount: 1>
new_DM -- step:    11
Re-using DM from previous geometries...
Number of DMs in history: 1
 DM extrapolation coefficients: 
1   1.00000
New DM after history re-use:
<dSpData2D:SpM extrapolated using coords
  <sparsity:sparsity for geom step 11
    nrows_g=23 nrows=3 sparsity=.1304 nnzs=69, refcount: 9>
  <dData2D:(temp array for extrapolation) n=69 m=1, refcount: 1>
refcount: 1>
No. of atoms with KB's overlaping orbs in proc 0. Max # of overlaps:       3      23
New grid distribution:   1
           1       1:   25    1:   13    1:    5
           2       1:   25    1:   13    6:   10
           3       1:   25    1:   13   11:   15
           4       1:   25    1:   13   16:   20
           5       1:   25   14:   25    1:    5
           6       1:   25   14:   25    6:   10
           7       1:   25   14:   25   11:   15
           8       1:   25   14:   25   16:   20

InitMesh: MESH =    50 x    50 x    40 =      100000
InitMesh: (bp) =    25 x    25 x    20 =       12500
InitMesh: Mesh cutoff (required, used) =   100.000   107.960 Ry
ExtMesh (bp) on 0 =    57 x    45 x    37 =       94905
New grid distribution:   2
           1       7:   25    6:   25    1:    6
           2       7:   25    1:    5    1:    6
           3       7:   25    1:    5    7:   20
           4       1:    6    1:    5    7:   20
           5       1:    6    6:   25    1:    6
           6       1:    6    1:    5    1:    6
           7       7:   25    6:   25    7:   20
           8       1:    6    6:   25    7:   20
New grid distribution:   3
           1       1:    9    7:   25    1:    7
           2      11:   25    1:    6    1:    8
           3       1:    9    7:   25    8:   20
           4      11:   25    1:    6    9:   20
           5      10:   25    7:   25    1:    7
           6       1:   10    1:    6    9:   20
           7      10:   25    7:   25    8:   20
           8       1:   10    1:    6    1:    8
Setting up quadratic distribution...
ExtMesh (bp) on 0 =    51 x    52 x    38 =      100776
PhiOnMesh: Number of (b)points on node 0 =                 2280
PhiOnMesh: nlist on node 0 =                 5145

        iscf     Eharris(eV)        E_KS(eV)     FreeEng(eV)     dDmax    Ef(eV) dHmax(eV)
   scf:    1     -465.848049     -465.824247     -465.824247  0.004154 -2.211082  0.052146
   scf:    2     -465.823779     -465.824140     -465.824140  0.002146 -2.243153  0.087612
   scf:    3     -465.824360     -465.824301     -465.824301  0.001330 -2.222959  0.002049
   scf:    4     -465.824302     -465.824302     -465.824302  0.000037 -2.223169  0.001160
   scf:    5     -465.824302     -465.824302     -465.824302  0.000067 -2.223566  0.000553

SCF Convergence by DM+H criterion
max |DM_out - DM_in|         :     0.0000665431
max |H_out - H_in|      (eV) :     0.0005530791
SCF cycle converged after 5 iterations

Using DM_out to compute the final energy and forces
No. of atoms with KB's overlaping orbs in proc 0. Max # of overlaps:       3      23

siesta: E_KS(eV) =             -465.8243

siesta: Atomic forces (eV/Ang):
     1    0.276115    0.280677   -0.045611
     2    0.110815   -0.246985    0.009103
     3   -0.400451   -0.039949   -0.012429
----------------------------------------
   Tot   -0.013521   -0.006257   -0.048936
----------------------------------------
   Max    0.400451
   Res    0.208853    sqrt( Sum f_i^2 / 3N )
----------------------------------------
   Max    0.400451    constrained

Stress tensor Voigt[x,y,z,yz,xz,xy] (kbar):       -1.74        0.24       -0.79        0.03       -0.11        0.67
(Free)E + p*V (eV/cell)     -465.6296
Target enthalpy (eV/cell)     -465.8243

siesta: Stress tensor (static) (eV/Ang**3):
        -0.001061    0.000393   -0.000031
         0.000393    0.000280   -0.000002
        -0.000032   -0.000002   -0.000418

siesta: Pressure (static):          0.64057825  kBar

siesta: Stress tensor (total) (eV/Ang**3):
        -0.001084    0.000418   -0.000070
         0.000417    0.000148    0.000018
        -0.000071    0.000018   -0.000491

siesta: Pressure (total):          0.76175675  kBar
 Anneal: Kinetic Energy=    3.4922523697554120E-003
 Anneal: Velocity scale factor =    1.0090168139998743     

siesta: Temp_ion =     187.132 K

                     ====================================
                        Begin MD step =     12
                     ====================================

outcoor: Atomic coordinates (Ang):                          
    0.00123770   -0.00299503    0.00208597   1       1  O
    0.74611704    0.62922339   -0.00051634   2       2  H
   -0.76584065    0.58922775   -0.03295193   2       3  H

outcell: Unit cell vectors (Ang):
        8.000000    0.000000    0.000000
        0.000000    8.000000    0.000000
        0.000000    0.000000    6.400000

[...]
----------------------------------------
   Tot    0.131424   -0.037913    0.224314
----------------------------------------
   Max    0.590649
   Res    0.345616    sqrt( Sum f_i^2 / 3N )
----------------------------------------
   Max    0.590649    constrained

Stress tensor Voigt[x,y,z,yz,xz,xy] (kbar):       -0.47        2.31        0.37        1.63        0.77        1.59
(Free)E + p*V (eV/cell)     -465.9973
Target enthalpy (eV/cell)     -465.8095

siesta: Stress tensor (static) (eV/Ang**3):
         0.000009    0.000765    0.000413
         0.000765    0.001643    0.001130
         0.000413    0.001129    0.000449

siesta: Pressure (static):         -1.12223880  kBar

siesta: Stress tensor (total) (eV/Ang**3):
        -0.000295    0.000994    0.000480
         0.000993    0.001440    0.001016
         0.000480    0.001016    0.000231

siesta: Pressure (total):         -0.73460012  kBar
 Anneal: Kinetic Energy=    1.0867139704959006E-002
 Anneal: Velocity scale factor =    1.0001961138791169     

siesta: Temp_ion =     572.180 K

                     ====================================
                        Begin MD step =    198
                     ====================================

outcoor: Atomic coordinates (Ang):                          
   -0.00589654    0.00534241   -0.01792219   1       1  O
    0.11901313    0.97682164   -0.05681139   2       2  H
   -0.42161687   -0.34413863   -0.83659531   2       3  H

outcell: Unit cell vectors (Ang):
        8.000000    0.000000    0.000000
        0.000000    8.000000    0.000000
        0.000000    0.000000    6.400000

outcell: Cell vector modules (Ang)   :    8.000000    8.000000    6.400000
outcell: Cell angles (23,13,12) (deg):     90.0000     90.0000     90.0000
outcell: Cell volume (Ang**3)        :    409.6000
<dSpData1D:S at geom step 198
  <sparsity:sparsity for geom step 198
    nrows_g=23 nrows=3 sparsity=.1304 nnzs=69, refcount: 7>
  <dData1D:(new from dSpData1D) n=69, refcount: 1>
refcount: 1>
new_DM -- step:   198
Re-using DM from previous geometries...
Number of DMs in history: 1
 DM extrapolation coefficients: 
1   1.00000
New DM after history re-use:
<dSpData2D:SpM extrapolated using coords
  <sparsity:sparsity for geom step 198
    nrows_g=23 nrows=3 sparsity=.1304 nnzs=69, refcount: 9>
  <dData2D:(temp array for extrapolation) n=69 m=1, refcount: 1>
refcount: 1>
No. of atoms with KB's overlaping orbs in proc 0. Max # of overlaps:       3      23
New grid distribution:   1
           1       1:   25    1:   13    1:    5
           2       1:   25    1:   13    6:   10
           3       1:   25    1:   13   11:   15
           4       1:   25    1:   13   16:   20
           5       1:   25   14:   25    1:    5
           6       1:   25   14:   25    6:   10
           7       1:   25   14:   25   11:   15
           8       1:   25   14:   25   16:   20

InitMesh: MESH =    50 x    50 x    40 =      100000
InitMesh: (bp) =    25 x    25 x    20 =       12500
InitMesh: Mesh cutoff (required, used) =   100.000   107.960 Ry
ExtMesh (bp) on 0 =    57 x    45 x    37 =       94905
New grid distribution:   2
           1       9:   25    1:    5    1:   13
           2       1:    8    1:    5    1:   14
           3       9:   25    1:    5   14:   20
           4       8:   25    6:   25   14:   20
           5       8:   25    6:   25    1:   13
           6       1:    7    6:   25    1:   14
           7       1:    8    1:    5   15:   20
           8       1:    7    6:   25   15:   20
New grid distribution:   3
           1       9:   25    1:    8    1:   12
           2       1:    8    1:    8    1:   11
           3       9:   25    1:    8   13:   20
           4       1:   18    9:   25   15:   20
           5       1:   18    9:   25    1:   14
           6      19:   25    9:   25    1:   13
           7       1:    8    1:    8   12:   20
           8      19:   25    9:   25   14:   20
Setting up quadratic distribution...
ExtMesh (bp) on 0 =    49 x    37 x    45 =       81585
PhiOnMesh: Number of (b)points on node 0 =                 1105
PhiOnMesh: nlist on node 0 =                 3839

        iscf     Eharris(eV)        E_KS(eV)     FreeEng(eV)     dDmax    Ef(eV) dHmax(eV)
   scf:    1     -465.837582     -465.806814     -465.806814  0.012110 -1.852846  0.058238
   scf:    2     -465.806287     -465.806690     -465.806690  0.002639 -1.887587  0.093939
   scf:    3     -465.806936     -465.806871     -465.806871  0.001563 -1.865711  0.003199
   scf:    4     -465.806872     -465.806872     -465.806872  0.000084 -1.865929  0.002281
   scf:    5     -465.806873     -465.806872     -465.806872  0.000190 -1.866475  0.000311
   scf:    6     -465.806872     -465.806872     -465.806872  0.000007 -1.866523  0.000210

SCF Convergence by DM+H criterion
max |DM_out - DM_in|         :     0.0000073473
max |H_out - H_in|      (eV) :     0.0002103426
SCF cycle converged after 6 iterations

Using DM_out to compute the final energy and forces
No. of atoms with KB's overlaping orbs in proc 0. Max # of overlaps:       3      23

siesta: E_KS(eV) =             -465.8069

siesta: Atomic forces (eV/Ang):
     1    0.088164   -0.078977    0.163124
     2   -0.251966   -0.610162   -0.370243
     3    0.300543    0.653528    0.431286
----------------------------------------
   Tot    0.136741   -0.035611    0.224168
----------------------------------------
   Max    0.653528
   Res    0.382523    sqrt( Sum f_i^2 / 3N )
----------------------------------------
   Max    0.653528    constrained

Stress tensor Voigt[x,y,z,yz,xz,xy] (kbar):       -0.39        2.82        0.83        1.83        0.98        1.71
(Free)E + p*V (eV/cell)     -466.0846
Target enthalpy (eV/cell)     -465.8069

siesta: Stress tensor (static) (eV/Ang**3):
         0.000072    0.000845    0.000548
         0.000844    0.001944    0.001247
         0.000547    0.001247    0.000736

siesta: Pressure (static):         -1.46932105  kBar

siesta: Stress tensor (total) (eV/Ang**3):
        -0.000243    0.001065    0.000609
         0.001065    0.001759    0.001143
         0.000609    0.001143    0.000518

siesta: Pressure (total):         -1.08638147  kBar
 Anneal: Kinetic Energy=    1.0687238236181824E-002
 Anneal: Velocity scale factor =    1.0002667322965435     

siesta: Temp_ion =     562.787 K

                     ====================================
                        Begin MD step =    199
                     ====================================

outcoor: Atomic coordinates (Ang):                          
   -0.00609416    0.00513277   -0.01789459   1       1  O
    0.11351727    0.97930671   -0.05961370   2       2  H
   -0.41698718   -0.34828789   -0.84161634   2       3  H

outcell: Unit cell vectors (Ang):
        8.000000    0.000000    0.000000
        0.000000    8.000000    0.000000
        0.000000    0.000000    6.400000

outcell: Cell vector modules (Ang)   :    8.000000    8.000000    6.400000
outcell: Cell angles (23,13,12) (deg):     90.0000     90.0000     90.0000
outcell: Cell volume (Ang**3)        :    409.6000
<dSpData1D:S at geom step 199
  <sparsity:sparsity for geom step 199
    nrows_g=23 nrows=3 sparsity=.1304 nnzs=69, refcount: 7>
  <dData1D:(new from dSpData1D) n=69, refcount: 1>
refcount: 1>
new_DM -- step:   199
Re-using DM from previous geometries...
Number of DMs in history: 1
 DM extrapolation coefficients: 
1   1.00000
New DM after history re-use:
<dSpData2D:SpM extrapolated using coords
  <sparsity:sparsity for geom step 199
    nrows_g=23 nrows=3 sparsity=.1304 nnzs=69, refcount: 9>
  <dData2D:(temp array for extrapolation) n=69 m=1, refcount: 1>
refcount: 1>
No. of atoms with KB's overlaping orbs in proc 0. Max # of overlaps:       3      23
New grid distribution:   1
           1       1:   25    1:   13    1:    5
           2       1:   25    1:   13    6:   10
           3       1:   25    1:   13   11:   15
           4       1:   25    1:   13   16:   20
           5       1:   25   14:   25    1:    5
           6       1:   25   14:   25    6:   10
           7       1:   25   14:   25   11:   15
           8       1:   25   14:   25   16:   20

InitMesh: MESH =    50 x    50 x    40 =      100000
InitMesh: (bp) =    25 x    25 x    20 =       12500
InitMesh: Mesh cutoff (required, used) =   100.000   107.960 Ry
ExtMesh (bp) on 0 =    57 x    45 x    37 =       94905
New grid distribution:   2
           1       9:   25    1:    5    1:   13
           2       1:    8    1:    5    1:   14
           3       9:   25    1:    5   14:   20
           4       8:   25    6:   25   14:   20
           5       8:   25    6:   25    1:   13
           6       1:    7    6:   25    1:   14
           7       1:    8    1:    5   15:   20
           8       1:    7    6:   25   15:   20
New grid distribution:   3
           1       9:   25    1:    8    1:   12
           2       1:    8    1:    8    1:   11
           3       9:   25    1:    8   13:   20
           4       1:   18    9:   25   15:   20
           5       1:   18    9:   25    1:   14
           6      19:   25    9:   25    1:   13
           7       1:    8    1:    8   12:   20
           8      19:   25    9:   25   14:   20
Setting up quadratic distribution...
ExtMesh (bp) on 0 =    49 x    37 x    45 =       81585
PhiOnMesh: Number of (b)points on node 0 =                 1105
PhiOnMesh: nlist on node 0 =                 3838

        iscf     Eharris(eV)        E_KS(eV)     FreeEng(eV)     dDmax    Ef(eV) dHmax(eV)
   scf:    1     -465.832408     -465.803818     -465.803818  0.011672 -1.857931  0.055901
   scf:    2     -465.803332     -465.803708     -465.803708  0.002562 -1.891378  0.090669
   scf:    3     -465.803937     -465.803877     -465.803877  0.001520 -1.870289  0.003083
   scf:    4     -465.803878     -465.803877     -465.803877  0.000080 -1.870498  0.002196
   scf:    5     -465.803878     -465.803878     -465.803878  0.000183 -1.871019  0.000293
   scf:    6     -465.803878     -465.803878     -465.803878  0.000007 -1.871062  0.000198

SCF Convergence by DM+H criterion
max |DM_out - DM_in|         :     0.0000066391
max |H_out - H_in|      (eV) :     0.0001977682
SCF cycle converged after 6 iterations

Using DM_out to compute the final energy and forces
No. of atoms with KB's overlaping orbs in proc 0. Max # of overlaps:       3      23

siesta: E_KS(eV) =             -465.8039

siesta: Atomic forces (eV/Ang):
     1    0.038677   -0.042840    0.023686
     2   -0.256878   -0.701361   -0.364651
     3    0.360376    0.710783    0.564856
----------------------------------------
   Tot    0.142175   -0.033418    0.223890
----------------------------------------
   Max    0.710783
   Res    0.428032    sqrt( Sum f_i^2 / 3N )
----------------------------------------
   Max    0.710783    constrained

Stress tensor Voigt[x,y,z,yz,xz,xy] (kbar):       -0.33        3.29        1.27        2.02        1.16        1.80
(Free)E + p*V (eV/cell)     -466.1646
Target enthalpy (eV/cell)     -465.8039

siesta: Stress tensor (static) (eV/Ang**3):
         0.000123    0.000911    0.000668
         0.000911    0.002218    0.001355
         0.000668    0.001355    0.001006

siesta: Pressure (static):         -1.78769375  kBar

siesta: Stress tensor (total) (eV/Ang**3):
        -0.000204    0.001122    0.000722
         0.001122    0.002053    0.001262
         0.000722    0.001262    0.000792

siesta: Pressure (total):         -1.41104042  kBar
 Anneal: Kinetic Energy=    1.0479413711511620E-002
 Anneal: Velocity scale factor =    1.0003513233897472     

siesta: Temp_ion =     551.936 K

                     ====================================
                        Begin MD step =    200
                     ====================================

outcoor: Atomic coordinates (Ang):                          
   -0.00629099    0.00492196   -0.01786641   1       1  O
    0.10792007    0.98152735   -0.06255637   2       2  H
   -0.41221747   -0.35217032   -0.84642654   2       3  H

outcell: Unit cell vectors (Ang):
        8.000000    0.000000    0.000000
        0.000000    8.000000    0.000000
        0.000000    0.000000    6.400000

outcell: Cell vector modules (Ang)   :    8.000000    8.000000    6.400000
outcell: Cell angles (23,13,12) (deg):     90.0000     90.0000     90.0000
outcell: Cell volume (Ang**3)        :    409.6000
<dSpData1D:S at geom step 200
  <sparsity:sparsity for geom step 200
    nrows_g=23 nrows=3 sparsity=.1304 nnzs=69, refcount: 7>
  <dData1D:(new from dSpData1D) n=69, refcount: 1>
refcount: 1>
new_DM -- step:   200
Re-using DM from previous geometries...
Number of DMs in history: 1
 DM extrapolation coefficients: 
1   1.00000
New DM after history re-use:
<dSpData2D:SpM extrapolated using coords
  <sparsity:sparsity for geom step 200
    nrows_g=23 nrows=3 sparsity=.1304 nnzs=69, refcount: 9>
  <dData2D:(temp array for extrapolation) n=69 m=1, refcount: 1>
refcount: 1>
No. of atoms with KB's overlaping orbs in proc 0. Max # of overlaps:       3      23
New grid distribution:   1
           1       1:   25    1:   13    1:    5
           2       1:   25    1:   13    6:   10
           3       1:   25    1:   13   11:   15
           4       1:   25    1:   13   16:   20
           5       1:   25   14:   25    1:    5
           6       1:   25   14:   25    6:   10
           7       1:   25   14:   25   11:   15
           8       1:   25   14:   25   16:   20

InitMesh: MESH =    50 x    50 x    40 =      100000
InitMesh: (bp) =    25 x    25 x    20 =       12500
InitMesh: Mesh cutoff (required, used) =   100.000   107.960 Ry
ExtMesh (bp) on 0 =    57 x    45 x    37 =       94905
New grid distribution:   2
           1       9:   25    1:    6    1:   14
           2       1:    8    1:    6    1:   14
           3       9:   25    1:    6   15:   20
           4       8:   25    7:   25   14:   20
           5       8:   25    7:   25    1:   13
           6       1:    7    7:   25    1:   14
           7       1:    8    1:    6   15:   20
           8       1:    7    7:   25   15:   20
New grid distribution:   3
           1       9:   25    1:    8    1:   12
           2       1:    8    1:    8    1:   11
           3       9:   25    1:    8   13:   20
           4       1:   18    9:   25   15:   20
           5       1:   18    9:   25    1:   14
           6      19:   25    9:   25    1:   13
           7       1:    8    1:    8   12:   20
           8      19:   25    9:   25   14:   20
Setting up quadratic distribution...
ExtMesh (bp) on 0 =    49 x    38 x    46 =       85652
PhiOnMesh: Number of (b)points on node 0 =                 1428
PhiOnMesh: nlist on node 0 =                 4564

        iscf     Eharris(eV)        E_KS(eV)     FreeEng(eV)     dDmax    Ef(eV) dHmax(eV)
   scf:    1     -465.826612     -465.800662     -465.800662  0.011160 -1.863856  0.052785
   scf:    2     -465.800225     -465.800563     -465.800563  0.002451 -1.895529  0.085988
   scf:    3     -465.800768     -465.800714     -465.800714  0.001457 -1.875540  0.003008
   scf:    4     -465.800716     -465.800715     -465.800715  0.000077 -1.875736  0.002101
   scf:    5     -465.800716     -465.800716     -465.800716  0.000174 -1.876223  0.000276
   scf:    6     -465.800716     -465.800716     -465.800716  0.000006 -1.876260  0.000186

SCF Convergence by DM+H criterion
max |DM_out - DM_in|         :     0.0000060290
max |H_out - H_in|      (eV) :     0.0001861214
SCF cycle converged after 6 iterations

Using DM_out to compute the final energy and forces
No. of atoms with KB's overlaping orbs in proc 0. Max # of overlaps:       3      23

siesta: E_KS(eV) =             -465.8007

siesta: Atomic forces (eV/Ang):
     1   -0.005297   -0.011203   -0.105157
     2   -0.258741   -0.781000   -0.357364
     3    0.411559    0.761128    0.686101
----------------------------------------
   Tot    0.147521   -0.031075    0.223580
----------------------------------------
   Max    0.781000
   Res    0.475542    sqrt( Sum f_i^2 / 3N )
----------------------------------------
   Max    0.781000    constrained

Stress tensor Voigt[x,y,z,yz,xz,xy] (kbar):       -0.28        3.71        1.68        2.19        1.31        1.87
(Free)E + p*V (eV/cell)     -466.2362
Target enthalpy (eV/cell)     -465.8007

siesta: Stress tensor (static) (eV/Ang**3):
         0.000164    0.000965    0.000773
         0.000964    0.002461    0.001451
         0.000773    0.001451    0.001255

siesta: Pressure (static):         -2.07284152  kBar

siesta: Stress tensor (total) (eV/Ang**3):
        -0.000177    0.001165    0.000819
         0.001164    0.002318    0.001369
         0.000819    0.001368    0.001048

siesta: Pressure (total):         -1.70345013  kBar
 Anneal: Kinetic Energy=    1.0262897219465951E-002
 Anneal: Velocity scale factor =    1.0004430881751263     

siesta: Temp_ion =     540.632 K

outcell: Unit cell vectors (Ang):
        8.000000    0.000000    0.000000
        0.000000    8.000000    0.000000
        0.000000    0.000000    6.400000

outcell: Cell vector modules (Ang)   :    8.000000    8.000000    6.400000
outcell: Cell angles (23,13,12) (deg):     90.0000     90.0000     90.0000
outcell: Cell volume (Ang**3)        :    409.6000

siesta: Program's energy decomposition (eV):
siesta: Ebs     =      -102.251721
siesta: Eions   =       815.854478
siesta: Ena     =       174.985028
siesta: Ekin    =       351.308810
siesta: Enl     =       -62.153094
siesta: Eso     =         0.000000
siesta: Edftu   =         0.000000
siesta: DEna    =        -2.326120
siesta: DUscf   =         0.765234
siesta: DUext   =         0.000000
siesta: Exc     =      -112.526095
siesta: eta*DQ  =         0.000000
siesta: Emadel  =         0.000000
siesta: Emeta   =         0.000000
siesta: Emolmec =         0.000000
siesta: Ekinion =         0.139759
siesta: Eharris =      -465.660957
siesta: Etot    =      -465.660957
siesta: FreeEng =      -465.660957

siesta: Final energy (eV):
siesta:  Band Struct. =    -102.251721
siesta:       Kinetic =     351.308810
siesta:       Hartree =     413.048719
siesta:       Edftu   =       0.000000
siesta:       Eso     =       0.000000
siesta:    Ext. field =       0.000000
siesta:   Exch.-corr. =    -112.526095
siesta:  Ion-electron =   -1132.226501
siesta:       Ion-ion =      14.594352
siesta:       Ekinion =       0.139759
siesta:         Total =    -465.660957
siesta:         Fermi =      -1.876260

siesta: Atomic forces (eV/Ang):
siesta:      1   -0.005297   -0.011203   -0.105157
siesta:      2   -0.258741   -0.781000   -0.357364
siesta:      3    0.411559    0.761128    0.686101
siesta: ----------------------------------------
siesta:    Tot    0.147521   -0.031075    0.223580

siesta: Stress tensor (static) (eV/Ang**3):
siesta:     0.000164    0.000965    0.000773
siesta:     0.000964    0.002461    0.001451
siesta:     0.000773    0.001451    0.001255

siesta: Cell volume =        409.600000 Ang**3

siesta: Pressure (static):
siesta:                Solid            Molecule  Units
siesta:          -0.00001409          0.00000096  Ry/Bohr**3
siesta:          -0.00129375          0.00008792  eV/Ang**3
siesta:          -2.07284152          0.14086496  kBar
(Free)E+ p_basis*V_orbitals  =        -465.215548
(Free)Eharris+ p_basis*V_orbitals  =        -465.215548

siesta: Electric dipole (a.u.)  =   -0.137134    0.289199   -0.413717
siesta: Electric dipole (Debye) =   -0.348560    0.735071   -1.051564

cite: Please see "h2o.bib" for an exhaustive BiBTeX file.
cite: Please clearly indicate Siesta version in published work: v4.1-b4-351
cite: This calculation has made use of the following articles
cite: which are encouraged to be cited in a published work.
        Primary SIESTA paper
          DOI: www.doi.org/10.1088/0953-8984/14/11/302

>> End of run:  22-JAN-2021  23:12:01
Job completed
