Siesta Version  : v4.1-b4-351
Architecture    : x86_64-linux-n-62-26-19
Compiler version: GNU Fortran (GCC) 9.3.0
Compiler flags  : mpifort -m64 -fPIC -O3 -march=native -ftree-vectorize -fexpensive-optimizatioons -funroll-loops -fprefetch-loop-arrays -fno-second-underscore  -flto
PP flags        : -I/dtu/sw/dcc/SL73/2020-aug/generic/build-tools/1.0/include -I/dtu/sw/dcc/SL773/2020-aug/generic/gcc/9.3.0/include -I/dtu/sw/dcc/SL73/2020-aug/generic/gcc/9.3.0/include -I/dtu/sw/dcc/SL73/2020-aug/XeonE5-2660v3/gnu/9.3.0/zlib/1.2.11/include -I/dtu/sw/dcc/SL73/2020-aug/generic/numactl/2.0.12/include -I/dtu/sw/dcc/SL73/2020-aug/XeonE5-2660v3/gnu/9.3.0/libxml2/2.9.10/include -I/dtu/sw/dcc/SL73/2020-aug/XeonE5-2660v3/gnu/9.3.0/hwloc/2.2.0/include -I/dtu/sw/dcc/SL73/2020-aug/XeonE5-2660v3/gnu/9.3.0/knem/1.1.4/include -I/dtu/sw/dcc/SL73/2020-aug/XeonE5-2660v3/gnu/9.3.0/ucx/1.8.1/include -I/dtu/sw/dcc/SL73/2020-aug/XeonE5-2660v3/gnu/9.3.0/openmpi/4.0.4/include -I/dtu/sw/dcc/SL73/2020-aug/XeonE5-2660v3/gnu/9.3.0/szip/2.1.1/include -I/dtu/sw/dcc/SL73/2020-aug/XeonE5-2660v3/gnu/9.3.0/hdf5/1.12.0/include -I/dtu/sw/dcc/SL73/2020-aug/XeonE5-2660v3/gnu/9.3.0/pnetcdf/1.12.1/include -I/dtu/sw/dcc/SL73/2020-aug/generic/gen-zlib/1.2.11/include -I/dtu/sw/dcc/SL73/2020-aug/generic/openssl/1.1.1/include -I/dtu/sw/dcc/SL73/2020-aug/generic/libssh2/1.8.2/include -I/dtu/sw/dcc/SL73/2020-aug/generic/curl/7.65.1/include -I/dtu/sw/dcc/SL73/2020-aug/XeonE5-2660v3/gnu/9.3.0/netcdf/4.7.4/include -I/dtu/sw/dcc/SL73/2020-aug/XeonE5-2660v3/gnu/9.3.0/flook/0.8.1/include -I/dtu/sw/dcc/SL73/2020-aug/XeonE5-2660v3/gnu/9.3.0/fftw/3.3.8/include -I/dtu/sw/dcc/SL73/2020-aug/XeonE5-2660v3/gnu/9.3.0/parmetis/4.0.3/include -I/dtu/sw/dcc/SL73/2020-aug/XeonE5-2660v3/gnu/9.3.0/scalapack/2.1.0/include -I/dtu/sw/dcc/SL73/2020-aug/XeonE5-2660v3/gnu/9.3.0/lapack/3.9.0/include -I/dtu/sw/dcc/SL73/2020-aug/XeonE5-2660v3/gnu/9.3.0/blis/0.7.0/include -I/dtu/sw/dcc/SL73/2020-aug/XeonE5-2660v3/gnu/9.3.0/scotch/6.0.9/include -I/dtu/sw/dcc/SL73/2020-aug/XeonE5-2660v3/gnu/9.3.0/mumps/5.3.3/include -I/dtu/sw/dcc/SL73/2020-aug/XeonE5-2660v3/gnu/9.3.0/elpa/2020.05.001/include -DSIESTA__ELPA -DMPI -DFC_HAVE_FLUSH -DFC_HAVE_ABORT -DCDF -DCDF4 -DSIESTA__FLOOK  -DNCDF -DNCDF_4 -DNCDF_PARALLEL -DTS_NOCHECKS -DSIESTA__METIS -DSIESTA__MUMPS -DSIESTA__MRRR -I/dtu/sw/dcc/SL73/2020-aug/XeonE5-2660v3/gnu/9.3.0/elpa/2020.05.001/include/elpa
Libraries       : libncdf.a libfdict.a -lnetcdff -lnetcdf -lpnetcdf -lhdf5_hl -lhdf5 -lz  -lzmuumps -lmumps_common -lesmumps -lscotch -lscotcherr -lpord -lparmetis -lmetis -lelpa -lscalapack -llapack -lblis  -L/dtu/sw/dcc/SL73/2020-aug/XeonE5-2660v3/gnu/9.3.0/flook/0.8.1/lib -Wl,-rpath=/dtu/sw/dcc/SL73/2020-aug/XeonE5-2660v3/gnu/9.3.0/flook/0.8.1/lib -lflookall -ldl  -flto -fuse-linker-plugin  -lmetis
PARALLEL version
NetCDF support
NetCDF-4 support
NetCDF-4 MPI-IO support
METIS ordering support
Lua support

* Running on 8 nodes in parallel
>> Start of run:  22-JAN-2021  21:45:11

                           ***********************       
                           *  WELCOME TO SIESTA  *       
                           ***********************       

reinit: Reading from standard input
reinit: Dumped input in INPUT_TMP.42597
************************** Dump of input data file ****************************
SystemName          Water molecule -- md anneal
SystemLabel         h2o
NumberOfAtoms       3
NumberOfSpecies     2
MeshCutoff  100 Ry
%block ChemicalSpeciesLabel
 1  8  O      # Species index, atomic number, species label
 2  1  H
%endblock ChemicalSpeciesLabel
LatticeConstant 8.0 Ang
%block LatticeVectors
1.0 0.0 0.0
0.0 1.0 0.0
0.0 0.0 0.8
%endblock LatticeVectors
AtomicCoordinatesFormat  Ang
%block AtomicCoordinatesAndAtomicSpecies
 0.000  0.000  0.000  1
 0.757  0.586  0.000  2
-0.757  0.586  0.000  2
%endblock AtomicCoordinatesAndAtomicSpecies
Solution.Method       diagon
MeshCutoff             100 Ry
WriteCoorStep      .true.
WriteForces        .true.
WriteMDHistory     .true.
MD.UseSaveXV       T
MD.TypeOfRun         Anneal
MD.InitialTemperature 600 K
MD.TargetTemperature 0 K
MD.Initial.Time.Step      1
MD.Final.Time.Step        20
MD.Length.Time.Step       0.2 fs
************************** End of input data file *****************************

reinit: -----------------------------------------------------------------------
reinit: System Name: Water molecule -- md anneal
reinit: -----------------------------------------------------------------------
reinit: System Label: h2o
reinit: -----------------------------------------------------------------------

initatom: Reading input for the pseudopotentials and atomic orbitals ----------
Species number:   1 Atomic number:    8 Label: O
Species number:   2 Atomic number:    1 Label: H

Ground state valence configuration:   2s02  2p04
Reading pseudopotential information in formatted form from O.psf

Valence configuration for pseudopotential generation:
2s( 2.00) rc: 1.14
2p( 4.00) rc: 1.14
3d( 0.00) rc: 1.14
4f( 0.00) rc: 1.14
Ground state valence configuration:   1s01
Reading pseudopotential information in formatted form from H.psf

Valence configuration for pseudopotential generation:
1s( 1.00) rc: 1.25
2p( 0.00) rc: 1.25
3d( 0.00) rc: 1.25
4f( 0.00) rc: 1.25
For O, standard SIESTA heuristics set lmxkb to 3
 (one more than the basis l, including polarization orbitals).
Use PS.lmax or PS.KBprojectors blocks to override.
For H, standard SIESTA heuristics set lmxkb to 2
 (one more than the basis l, including polarization orbitals).
Use PS.lmax or PS.KBprojectors blocks to override.

<basis_specs>
===============================================================================
O                    Z=   8    Mass=  16.000        Charge= 0.17977+309
Lmxo=1 Lmxkb= 3    BasisType=split      Semic=F
L=0  Nsemic=0  Cnfigmx=2
          i=1  nzeta=2  polorb=0  (2s)
            splnorm:   0.15000    
               vcte:    0.0000    
               rinn:    0.0000    
               qcoe:    0.0000    
               qyuk:    0.0000    
               qwid:   0.10000E-01
                rcs:    0.0000      0.0000    
            lambdas:    1.0000      1.0000    
L=1  Nsemic=0  Cnfigmx=2
          i=1  nzeta=2  polorb=1  (2p)
            splnorm:   0.15000    
               vcte:    0.0000    
               rinn:    0.0000    
               qcoe:    0.0000    
               qyuk:    0.0000    
               qwid:   0.10000E-01
                rcs:    0.0000      0.0000    
            lambdas:    1.0000      1.0000    
-------------------------------------------------------------------------------
L=0  Nkbl=1  erefs: 0.17977+309
L=1  Nkbl=1  erefs: 0.17977+309
L=2  Nkbl=1  erefs: 0.17977+309
L=3  Nkbl=1  erefs: 0.17977+309
===============================================================================
</basis_specs>

atom: Called for O                     (Z =   8)

read_vps: Pseudopotential generation method:
read_vps: ATM3      Troullier-Martins                       
Valence charge for ps generation:    6.00000

xc_check: Exchange-correlation functional:
xc_check: Ceperley-Alder
V l=0 = -2*Zval/r beyond r=  1.1278
V l=1 = -2*Zval/r beyond r=  1.1278
V l=2 = -2*Zval/r beyond r=  1.1278
V l=3 = -2*Zval/r beyond r=  1.1138
All V_l potentials equal beyond r=  1.1278
This should be close to max(r_c) in ps generation
All pots = -2*Zval/r beyond r=  1.1278

VLOCAL1: 99.0% of the norm of Vloc inside     34.126 Ry
VLOCAL1: 99.9% of the norm of Vloc inside     77.774 Ry
atom: Maximum radius for 4*pi*r*r*local-pseudopot. charge    1.37759
atom: Maximum radius for r*vlocal+2*Zval:    1.18566
GHOST: No ghost state for L =  0
GHOST: No ghost state for L =  1
GHOST: No ghost state for L =  2
GHOST: No ghost state for L =  3

KBgen: Kleinman-Bylander projectors: 
   l= 0   rc=  1.294105   el= -1.742414   Ekb=  9.135903   kbcos=  0.326910
   l= 1   rc=  1.294105   el= -0.676589   Ekb= -8.124878   kbcos= -0.395047
   l= 2   rc=  1.448233   el=  0.002386   Ekb= -2.039267   kbcos= -0.003484
   l= 3   rc=  1.561052   el=  0.003508   Ekb= -0.799141   kbcos= -0.000344

KBgen: Total number of  Kleinman-Bylander projectors:   16
atom: -------------------------------------------------------------------------

atom: SANKEY-TYPE ORBITALS:
atom: Selected multiple-zeta basis: split     

SPLIT: Orbitals with angular momentum L= 0

SPLIT: Basis orbitals for state 2s

SPLIT: PAO cut-off radius determined from an
SPLIT: energy shift=  0.020000 Ry

   izeta = 1
                 lambda =    1.000000
                     rc =    3.305093
                 energy =   -1.723766
                kinetic =    1.614911
    potential(screened) =   -3.338677
       potential(ionic) =  -11.304675

   izeta = 2
                 rmatch =    2.510382
              splitnorm =    0.150000
                 energy =   -1.471299
                kinetic =    2.446434
    potential(screened) =   -3.917732
       potential(ionic) =  -12.476133

SPLIT: Orbitals with angular momentum L= 1

SPLIT: Basis orbitals for state 2p

SPLIT: PAO cut-off radius determined from an
SPLIT: energy shift=  0.020000 Ry

   izeta = 1
                 lambda =    1.000000
                     rc =    3.937239
                 energy =   -0.658841
                kinetic =    5.005986
    potential(screened) =   -5.664827
       potential(ionic) =  -13.452360

   izeta = 2
                 rmatch =    2.541963
              splitnorm =    0.150000
                 energy =   -0.367441
                kinetic =    7.530509
    potential(screened) =   -7.897949
       potential(ionic) =  -16.611953

POLgen: Perturbative polarization orbital with L=  2

POLgen: Polarization orbital for state 2p

   izeta = 1
                     rc =    3.937239
                 energy =    2.398520
                kinetic =    4.716729
    potential(screened) =   -2.318209
       potential(ionic) =   -8.603170
atom: Total number of Sankey-type orbitals: 13

atm_pop: Valence configuration (for local Pseudopot. screening):
 2s( 2.00)                                                            
 2p( 4.00)                                                            
Vna: chval, zval:    6.00000   6.00000

Vna:  Cut-off radius for the neutral-atom potential:   3.937239

atom: _________________________________________________________________________

<basis_specs>
===============================================================================
H                    Z=   1    Mass=  1.0100        Charge= 0.17977+309
Lmxo=0 Lmxkb= 2    BasisType=split      Semic=F
L=0  Nsemic=0  Cnfigmx=1
          i=1  nzeta=2  polorb=1  (1s)
            splnorm:   0.15000    
               vcte:    0.0000    
               rinn:    0.0000    
               qcoe:    0.0000    
               qyuk:    0.0000    
               qwid:   0.10000E-01
                rcs:    0.0000      0.0000    
            lambdas:    1.0000      1.0000    
-------------------------------------------------------------------------------
L=0  Nkbl=1  erefs: 0.17977+309
L=1  Nkbl=1  erefs: 0.17977+309
L=2  Nkbl=1  erefs: 0.17977+309
===============================================================================
</basis_specs>

atom: Called for H                     (Z =   1)

read_vps: Pseudopotential generation method:
read_vps: ATM3      Troullier-Martins                       
Valence charge for ps generation:    1.00000

xc_check: Exchange-correlation functional:
xc_check: Ceperley-Alder
V l=0 = -2*Zval/r beyond r=  1.2343
V l=1 = -2*Zval/r beyond r=  1.2189
V l=2 = -2*Zval/r beyond r=  1.2189
All V_l potentials equal beyond r=  1.2343
This should be close to max(r_c) in ps generation
All pots = -2*Zval/r beyond r=  1.2343

VLOCAL1: 99.0% of the norm of Vloc inside     28.493 Ry
VLOCAL1: 99.9% of the norm of Vloc inside     64.935 Ry
atom: Maximum radius for 4*pi*r*r*local-pseudopot. charge    1.45251
atom: Maximum radius for r*vlocal+2*Zval:    1.21892
GHOST: No ghost state for L =  0
GHOST: No ghost state for L =  1
GHOST: No ghost state for L =  2

KBgen: Kleinman-Bylander projectors: 
   l= 0   rc=  1.364359   el= -0.467325   Ekb= -2.005361   kbcos= -0.336422
   l= 1   rc=  1.434438   el=  0.001430   Ekb= -0.501708   kbcos= -0.021697
   l= 2   rc=  1.470814   el=  0.002365   Ekb= -0.190555   kbcos= -0.002281

KBgen: Total number of  Kleinman-Bylander projectors:    9
atom: -------------------------------------------------------------------------

atom: SANKEY-TYPE ORBITALS:
atom: Selected multiple-zeta basis: split     

SPLIT: Orbitals with angular momentum L= 0

SPLIT: Basis orbitals for state 1s

SPLIT: PAO cut-off radius determined from an
SPLIT: energy shift=  0.020000 Ry

   izeta = 1
                 lambda =    1.000000
                     rc =    4.828263
                 energy =   -0.449375
                kinetic =    0.929372
    potential(screened) =   -1.378747
       potential(ionic) =   -1.915047

   izeta = 2
                 rmatch =    3.854947
              splitnorm =    0.150000
                 energy =   -0.336153
                kinetic =    1.505294
    potential(screened) =   -1.841447
       potential(ionic) =   -2.413582

POLgen: Perturbative polarization orbital with L=  1

POLgen: Polarization orbital for state 1s

   izeta = 1
                     rc =    4.828263
                 energy =    0.706972
                kinetic =    1.396397
    potential(screened) =   -0.689424
       potential(ionic) =   -1.169792
atom: Total number of Sankey-type orbitals:  5

atm_pop: Valence configuration (for local Pseudopot. screening):
 1s( 1.00)                                                            
Vna: chval, zval:    1.00000   1.00000

Vna:  Cut-off radius for the neutral-atom potential:   4.828263

atom: _________________________________________________________________________

prinput: Basis input ----------------------------------------------------------

PAO.BasisType split     

%block ChemicalSpeciesLabel
    1    8 O                       # Species index, atomic number, species label
    2    1 H                       # Species index, atomic number, species label
%endblock ChemicalSpeciesLabel

%block PAO.Basis                 # Define Basis set
O                     2                    # Species label, number of l-shells
 n=2   0   2                         # n, l, Nzeta 
   3.305      2.510   
   1.000      1.000   
 n=2   1   2 P   1                   # n, l, Nzeta, Polarization, NzetaPol
   3.937      2.542   
   1.000      1.000   
H                     1                    # Species label, number of l-shells
 n=1   0   2 P   1                   # n, l, Nzeta, Polarization, NzetaPol
   4.828      3.855   
   1.000      1.000   
%endblock PAO.Basis

prinput: ----------------------------------------------------------------------

Dumping basis to NetCDF file O.ion.nc
Dumping basis to NetCDF file H.ion.nc
coor:   Atomic-coordinates input format  =     Cartesian coordinates
coor:                                          (in Angstroms)

siesta: WARNING: XV file not found

siesta: Atomic coordinates (Bohr) and species
siesta:      0.00000   0.00000   0.00000  1        1
siesta:      1.43052   1.10738   0.00000  2        2
siesta:     -1.43052   1.10738   0.00000  2        3

siesta: System type = molecule  

initatomlists: Number of atoms, orbitals, and projectors:      3    23    34

siesta: ******************** Simulation parameters ****************************
siesta:
siesta: The following are some of the parameters of the simulation.
siesta: A complete list of the parameters used, including default values,
siesta: can be found in file out.fdf
siesta:
redata: Spin configuration                          = none
redata: Number of spin components                   = 1
redata: Time-Reversal Symmetry                      = T
redata: Spin spiral                                 = F
redata: Long output                                 =   F
redata: Number of Atomic Species                    =        2
redata: Charge density info will appear in .RHO file
redata: Write Mulliken Pop.                         = NO
redata: Matel table size (NRTAB)                    =     1024
redata: Mesh Cutoff                                 =   100.0000 Ry
redata: Net charge of the system                    =     0.0000 |e|
redata: Min. number of SCF Iter                     =        0
redata: Max. number of SCF Iter                     =     1000
redata: SCF convergence failure will abort job
redata: SCF mix quantity                            = Hamiltonian
redata: Mix DM or H after convergence               =   F
redata: Recompute H after scf cycle                 =   F
redata: Mix DM in first SCF step                    =   T
redata: Write Pulay info on disk                    =   F
redata: New DM Occupancy tolerance                  = 0.000000000001
redata: No kicks to SCF
redata: DM Mixing Weight for Kicks                  =     0.5000
redata: Require Harris convergence for SCF          =   F
redata: Harris energy tolerance for SCF             =     0.000100 eV
redata: Require DM convergence for SCF              =   T
redata: DM tolerance for SCF                        =     0.000100
redata: Require EDM convergence for SCF             =   F
redata: EDM tolerance for SCF                       =     0.001000 eV
redata: Require H convergence for SCF               =   T
redata: Hamiltonian tolerance for SCF               =     0.001000 eV
redata: Require (free) Energy convergence for SCF   =   F
redata: (free) Energy tolerance for SCF             =     0.000100 eV
redata: Using Saved Data (generic)                  =   F
redata: Use continuation files for DM               =   F
redata: Neglect nonoverlap interactions             =   F
redata: Method of Calculation                       = Diagonalization
redata: Electronic Temperature                      =   299.9869 K
redata: Fix the spin of the system                  =   F
redata: Dynamics option                             = Annealing MD run
redata: Initial MD time step                        =        1
redata:   Final MD time step                        =       20
redata: Length of MD time step                      =     0.2000 fs
redata: Initial Temperature of MD run               =   600.0000 K
redata: Annealing Option                            = Temperature and Pressure
redata: Target Temperature                          =     0.0000 Kelvin
redata: Target Pressure                             =     0.0000 eV/Ang**3
redata: Annealing Relaxation Time                   =   100.0000 fs
redata: Approx. Bulk Modulus                        =     0.6241 eV/Ang**3
mix.SCF: Pulay mixing                            = Pulay
mix.SCF:    Variant                              = stable
mix.SCF:    History steps                        = 2
mix.SCF:    Linear mixing weight                 =     0.250000
mix.SCF:    Mixing weight                        =     0.250000
mix.SCF:    SVD condition                        = 0.1000E-07
redata: Save all siesta data in one NC              =   F
redata: ***********************************************************************

%block SCF.Mixers
  Pulay
%endblock SCF.Mixers

%block SCF.Mixer.Pulay
  # Mixing method
  method pulay
  variant stable

  # Mixing options
  weight 0.2500
  weight.linear 0.2500
  history 2
%endblock SCF.Mixer.Pulay

Size of DM history Fstack: 1
Total number of electrons:     8.000000
Total ionic charge:     8.000000

* ProcessorY, Blocksize:    2   3


* Orbital distribution balance (max,min):     3     2

 Kpoints in:            1 . Kpoints trimmed:            1

siesta: k-grid: Number of k-points =     1
siesta: k-grid: Cutoff (effective) =     3.200 Ang
siesta: k-grid: Supercell and displacements
siesta: k-grid:    1   0   0      0.000
siesta: k-grid:    0   1   0      0.000
siesta: k-grid:    0   0   1      0.000

diag: Algorithm                                     = D&C
diag: Parallel over k                               =   F
diag: Use parallel 2D distribution                  =   T
diag: Parallel block-size                           = 3
diag: Parallel distribution                         =     2 x     4
diag: Used triangular part                          = Lower
diag: Absolute tolerance                            =  0.100E-15
diag: Orthogonalization factor                      =  0.100E-05
diag: Memory factor                                 =  1.0000


ts: **************************************************************
ts: Save H and S matrices                           =    F
ts: Save DM and EDM matrices                        =    F
ts: Only save the overlap matrix S                  =    F
ts: **************************************************************

************************ Begin: TS CHECKS AND WARNINGS ************************
************************ End: TS CHECKS AND WARNINGS **************************


                     ====================================
                        Begin MD step =      1
                     ====================================

outcoor: Atomic coordinates (Ang):                          
    0.00000000    0.00000000    0.00000000   1       1  O
    0.75700000    0.58600000    0.00000000   2       2  H
   -0.75700000    0.58600000    0.00000000   2       3  H

outcell: Unit cell vectors (Ang):
        8.000000    0.000000    0.000000
        0.000000    8.000000    0.000000
        0.000000    0.000000    6.400000

outcell: Cell vector modules (Ang)   :    8.000000    8.000000    6.400000
outcell: Cell angles (23,13,12) (deg):     90.0000     90.0000     90.0000
outcell: Cell volume (Ang**3)        :    409.6000
<dSpData1D:S at geom step 1
  <sparsity:sparsity for geom step 1
    nrows_g=23 nrows=3 sparsity=.1304 nnzs=69, refcount: 7>
  <dData1D:(new from dSpData1D) n=69, refcount: 1>
refcount: 1>
new_DM -- step:     1
Initializing Density Matrix...
DM filled with atomic data:
<dSpData2D:DM initialized from atoms
  <sparsity:sparsity for geom step 1
    nrows_g=23 nrows=3 sparsity=.1304 nnzs=69, refcount: 8>
  <dData2D:DM n=69 m=1, refcount: 1>
refcount: 1>
No. of atoms with KB's overlaping orbs in proc 0. Max # of overlaps:       3      23
New grid distribution:   1
           1       1:   25    1:   13    1:    5
           2       1:   25    1:   13    6:   10
           3       1:   25    1:   13   11:   15
           4       1:   25    1:   13   16:   20
           5       1:   25   14:   25    1:    5
           6       1:   25   14:   25    6:   10
           7       1:   25   14:   25   11:   15
           8       1:   25   14:   25   16:   20

InitMesh: MESH =    50 x    50 x    40 =      100000
InitMesh: (bp) =    25 x    25 x    20 =       12500
InitMesh: Mesh cutoff (required, used) =   100.000   107.960 Ry
ExtMesh (bp) on 0 =    57 x    45 x    37 =       94905
New grid distribution:   2
           1       7:   25    6:   25    1:    6
           2       7:   25    1:    5    1:    6
           3       7:   25    1:    5    7:   20
           4       1:    6    1:    5    7:   20
           5       1:    6    6:   25    1:    6
           6       1:    6    1:    5    1:    6
           7       7:   25    6:   25    7:   20
           8       1:    6    6:   25    7:   20
New grid distribution:   3
           1       1:    9    7:   25    1:    7
           2      11:   25    1:    6    1:    8
           3       1:    9    7:   25    8:   20
           4      11:   25    1:    6    9:   20
           5      10:   25    7:   25    1:    7
           6       1:   10    1:    6    9:   20
           7      10:   25    7:   25    8:   20
           8       1:   10    1:    6    1:    8
Setting up quadratic distribution...
ExtMesh (bp) on 0 =    51 x    52 x    38 =      100776
PhiOnMesh: Number of (b)points on node 0 =                 2280
PhiOnMesh: nlist on node 0 =                 5165

stepf: Fermi-Dirac step function

siesta: Program's energy decomposition (eV):
siesta: Ebs     =       -82.119669
siesta: Eions   =       815.854478
siesta: Ena     =       175.155695
siesta: Ekin    =       377.531314
siesta: Enl     =       -69.272321
siesta: Eso     =         0.000000
siesta: Edftu   =         0.000000
siesta: DEna    =       -17.548253
siesta: DUscf   =         2.107478
siesta: DUext   =         0.000000
siesta: Exc     =      -117.110096
siesta: eta*DQ  =         0.000000
siesta: Emadel  =         0.000000
siesta: Emeta   =         0.000000
siesta: Emolmec =         0.000000
siesta: Ekinion =         0.000000
siesta: Eharris =      -466.820729
siesta: Etot    =      -464.990661
siesta: FreeEng =      -464.990661

        iscf     Eharris(eV)        E_KS(eV)     FreeEng(eV)     dDmax    Ef(eV) dHmax(eV)
   scf:    1     -466.820729     -464.990661     -464.990661  1.433758 -4.421566  7.362816
timer: Routine,Calls,Time,% = IterSCF        1       0.020   1.50
   scf:    2     -466.222677     -465.720515     -465.720515  0.059267 -3.209848  2.873260
   scf:    3     -465.834534     -465.817252     -465.817252  0.028397 -2.390871  0.344099
   scf:    4     -465.822842     -465.820237     -465.820237  0.010402 -2.315513  0.265656
   scf:    5     -465.822394     -465.821750     -465.821750  0.021596 -2.104162  0.064327
   scf:    6     -465.821894     -465.821832     -465.821832  0.000473 -2.074057  0.029944
   scf:    7     -465.821907     -465.821875     -465.821875  0.000931 -2.076615  0.020268
   scf:    8     -465.821906     -465.821892     -465.821892  0.000897 -2.081282  0.012963
   scf:    9     -465.821896     -465.821895     -465.821895  0.000620 -2.087336  0.005007
   scf:   10     -465.821894     -465.821895     -465.821895  0.000099 -2.089924  0.002495
   scf:   11     -465.821895     -465.821895     -465.821895  0.000039 -2.090352  0.001641
   scf:   12     -465.821895     -465.821895     -465.821895  0.000042 -2.090515  0.000723

SCF Convergence by DM+H criterion
max |DM_out - DM_in|         :     0.0000415343
max |H_out - H_in|      (eV) :     0.0007228882
SCF cycle converged after 12 iterations

Using DM_out to compute the final energy and forces
No. of atoms with KB's overlaping orbs in proc 0. Max # of overlaps:       3      23

siesta: E_KS(eV) =             -465.8219

siesta: E_KS - E_eggbox =      -465.8219

siesta: Atomic forces (eV/Ang):
     1    0.000000   -0.692488    0.000000
     2    0.665998    0.319146   -0.000000
     3   -0.665998    0.319146   -0.000000
----------------------------------------
   Tot   -0.000000   -0.054197    0.000000
----------------------------------------
   Max    0.692488
   Res    0.417713    sqrt( Sum f_i^2 / 3N )
----------------------------------------
   Max    0.692488    constrained

Stress tensor Voigt[x,y,z,yz,xz,xy] (kbar):       -4.36       -2.33       -1.07       -0.00        0.08        0.36
(Free)E + p*V (eV/cell)     -465.1609
Target enthalpy (eV/cell)     -465.8219

siesta: Stress tensor (static) (eV/Ang**3):
        -0.002568    0.000000    0.000000
        -0.000000   -0.001104    0.000000
         0.000000    0.000000   -0.000417

siesta: Pressure (static):          2.18394413  kBar

siesta: Stress tensor (total) (eV/Ang**3):
        -0.002718    0.000223    0.000048
         0.000223   -0.001456   -0.000003
         0.000048   -0.000003   -0.000667

siesta: Pressure (total):          2.58550296  kBar
 Anneal: Kinetic Energy=    1.1399990885723065E-002
 Anneal: Velocity scale factor =   0.99899949949937417     
 Anneal: Cell scale factor =    1.0000021414919995     

siesta: Temp_ion =     598.800 K

                     ====================================
                        Begin MD step =      2
                     ====================================

outcoor: Atomic coordinates (Ang):                          
    0.00019044   -0.00042345    0.00038829   1       1  O
    0.75259901    0.59325569   -0.00010608   2       2  H
   -0.75561594    0.58544756   -0.00604507   2       3  H

outcell: Unit cell vectors (Ang):
        8.000070    0.000000    0.000000
        0.000000    8.000037    0.000000
        0.000000    0.000000    6.400014

outcell: Cell vector modules (Ang)   :    8.000070    8.000037    6.400014
outcell: Cell angles (23,13,12) (deg):     90.0000     90.0000     90.0000
outcell: Cell volume (Ang**3)        :    409.6064
<dSpData1D:S at geom step 2
  <sparsity:sparsity for geom step 2
    nrows_g=23 nrows=3 sparsity=.1304 nnzs=69, refcount: 7>
  <dData1D:(new from dSpData1D) n=69, refcount: 1>
refcount: 1>
new_DM -- step:     2
Re-using DM from previous geometries...
Number of DMs in history: 1
 DM extrapolation coefficients: 
1   1.00000
New DM after history re-use:
<dSpData2D:SpM extrapolated using coords
  <sparsity:sparsity for geom step 2
    nrows_g=23 nrows=3 sparsity=.1304 nnzs=69, refcount: 9>
  <dData2D:(temp array for extrapolation) n=69 m=1, refcount: 1>
refcount: 1>
No. of atoms with KB's overlaping orbs in proc 0. Max # of overlaps:       3      23
New grid distribution:   1
           1       1:   25    1:   13    1:    5
           2       1:   25    1:   13    6:   10
           3       1:   25    1:   13   11:   15
           4       1:   25    1:   13   16:   20
           5       1:   25   14:   25    1:    5
           6       1:   25   14:   25    6:   10
           7       1:   25   14:   25   11:   15
           8       1:   25   14:   25   16:   20

InitMesh: MESH =    50 x    50 x    40 =      100000
InitMesh: (bp) =    25 x    25 x    20 =       12500
InitMesh: Mesh cutoff (required, used) =   100.000   107.958 Ry
ExtMesh (bp) on 0 =    57 x    45 x    37 =       94905
New grid distribution:   2
           1       7:   25    6:   25    1:    6
           2       7:   25    1:    5    1:    6
           3       7:   25    1:    5    7:   20
           4       1:    6    1:    5    7:   20
           5       1:    6    6:   25    1:    6
           6       1:    6    1:    5    1:    6
           7       7:   25    6:   25    7:   20
           8       1:    6    6:   25    7:   20
New grid distribution:   3
           1       1:    9    7:   25    1:    7
           2      11:   25    1:    6    1:    8
           3       1:    9    7:   25    8:   20
           4      11:   25    1:    6    9:   20
           5      10:   25    7:   25    1:    7
           6       1:   10    1:    6    9:   20
           7      10:   25    7:   25    8:   20
           8       1:   10    1:    6    1:    8
Setting up quadratic distribution...
ExtMesh (bp) on 0 =    51 x    52 x    38 =      100776
PhiOnMesh: Number of (b)points on node 0 =                 2280
PhiOnMesh: nlist on node 0 =                 5155

        iscf     Eharris(eV)        E_KS(eV)     FreeEng(eV)     dDmax    Ef(eV) dHmax(eV)
   scf:    1     -465.816531     -465.820197     -465.820197  0.005374 -2.111905  0.037640
   scf:    2     -465.820041     -465.820181     -465.820181  0.001401 -2.135004  0.054259
   scf:    3     -465.820284     -465.820257     -465.820257  0.000824 -2.121385  0.003760
   scf:    4     -465.820259     -465.820258     -465.820258  0.000040 -2.121377  0.002010
   scf:    5     -465.820259     -465.820259     -465.820259  0.000061 -2.121438  0.000702

SCF Convergence by DM+H criterion
max |DM_out - DM_in|         :     0.0000608644
max |H_out - H_in|      (eV) :     0.0007022672
SCF cycle converged after 5 iterations

Using DM_out to compute the final energy and forces
No. of atoms with KB's overlaping orbs in proc 0. Max # of overlaps:       3      23

siesta: E_KS(eV) =             -465.8203

siesta: Atomic forces (eV/Ang):
     1    0.094988   -0.645008   -0.005299
     2    0.653026    0.266913    0.001257
     3   -0.750913    0.332048   -0.006797
----------------------------------------
   Tot   -0.002899   -0.046047   -0.010840
----------------------------------------
   Max    0.750913
   Res    0.421234    sqrt( Sum f_i^2 / 3N )
----------------------------------------
   Max    0.750913    constrained

Stress tensor Voigt[x,y,z,yz,xz,xy] (kbar):       -4.56       -2.24       -1.07        0.01        0.06        0.56
(Free)E + p*V (eV/cell)     -465.1494
Target enthalpy (eV/cell)     -465.8203

siesta: Stress tensor (static) (eV/Ang**3):
        -0.002698    0.000124   -0.000011
         0.000124   -0.001048    0.000006
        -0.000013    0.000006   -0.000417

siesta: Pressure (static):          2.22335278  kBar

siesta: Stress tensor (total) (eV/Ang**3):
        -0.002848    0.000347    0.000037
         0.000347   -0.001399    0.000003
         0.000035    0.000004   -0.000667

siesta: Pressure (total):          2.62410598  kBar
 Anneal: Kinetic Energy=    1.1234558161011222E-002
 Anneal: Velocity scale factor =   0.99899949949937417     
 Anneal: Cell scale factor =    1.0000021393601630     

siesta: Temp_ion =     590.110 K

                     ====================================
                        Begin MD step =      3
                     ====================================

outcoor: Atomic coordinates (Ang):                          
    0.00038278   -0.00086148    0.00077568   1       1  O
    0.74845451    0.60059801   -0.00021147   2       2  H
   -0.75451950    0.58502199   -0.01208064   2       3  H

outcell: Unit cell vectors (Ang):
        8.000142    0.000000    0.000000
        0.000000    8.000074    0.000000
        0.000000    0.000000    6.400027

outcell: Cell vector modules (Ang)   :    8.000142    8.000074    6.400027
outcell: Cell angles (23,13,12) (deg):     90.0000     90.0000     90.0000
outcell: Cell volume (Ang**3)        :    409.6128
<dSpData1D:S at geom step 3
  <sparsity:sparsity for geom step 3
    nrows_g=23 nrows=3 sparsity=.1304 nnzs=69, refcount: 7>
  <dData1D:(new from dSpData1D) n=69, refcount: 1>
refcount: 1>
new_DM -- step:     3
Re-using DM from previous geometries...
Number of DMs in history: 1
 DM extrapolation coefficients: 
1   1.00000
New DM after history re-use:
<dSpData2D:SpM extrapolated using coords
  <sparsity:sparsity for geom step 3
    nrows_g=23 nrows=3 sparsity=.1304 nnzs=69, refcount: 9>
  <dData2D:(temp array for extrapolation) n=69 m=1, refcount: 1>
refcount: 1>
No. of atoms with KB's overlaping orbs in proc 0. Max # of overlaps:       3      23
New grid distribution:   1
           1       1:   25    1:   13    1:    5
           2       1:   25    1:   13    6:   10
           3       1:   25    1:   13   11:   15
           4       1:   25    1:   13   16:   20
           5       1:   25   14:   25    1:    5
           6       1:   25   14:   25    6:   10
           7       1:   25   14:   25   11:   15
           8       1:   25   14:   25   16:   20

InitMesh: MESH =    50 x    50 x    40 =      100000
InitMesh: (bp) =    25 x    25 x    20 =       12500
InitMesh: Mesh cutoff (required, used) =   100.000   107.956 Ry
ExtMesh (bp) on 0 =    57 x    45 x    37 =       94905
New grid distribution:   2
           1       7:   25    6:   25    1:    6
           2       7:   25    1:    5    1:    6
           3       7:   25    1:    5    7:   20
           4       1:    6    1:    5    7:   20
           5       1:    6    6:   25    1:    6
           6       1:    6    1:    5    1:    6
           7       7:   25    6:   25    7:   20
           8       1:    6    6:   25    7:   20
New grid distribution:   3
           1       1:    9    7:   25    1:    7
           2      11:   25    1:    6    1:    8
           3       1:    9    7:   25    8:   20
           4      11:   25    1:    6    9:   20
           5      10:   25    7:   25    1:    7
           6       1:   10    1:    6    9:   20
           7      10:   25    7:   25    8:   20
           8       1:   10    1:    6    1:    8
Setting up quadratic distribution...
ExtMesh (bp) on 0 =    51 x    52 x    38 =      100776
PhiOnMesh: Number of (b)points on node 0 =                 2280
PhiOnMesh: nlist on node 0 =                 5157

        iscf     Eharris(eV)        E_KS(eV)     FreeEng(eV)     dDmax    Ef(eV) dHmax(eV)
   scf:    1     -465.818499     -465.818615     -465.818615  0.005396 -2.142563  0.042768
   scf:    2     -465.818396     -465.818584     -465.818584  0.001627 -2.169029  0.063175
   scf:    3     -465.818715     -465.818681     -465.818681  0.000964 -2.153253  0.004075
   scf:    4     -465.818683     -465.818682     -465.818682  0.000041 -2.153310  0.002201
   scf:    5     -465.818684     -465.818683     -465.818683  0.000063 -2.153459  0.000657

SCF Convergence by DM+H criterion
max |DM_out - DM_in|         :     0.0000631754
max |H_out - H_in|      (eV) :     0.0006574151
SCF cycle converged after 5 iterations

Using DM_out to compute the final energy and forces
No. of atoms with KB's overlaping orbs in proc 0. Max # of overlaps:       3      23

siesta: E_KS(eV) =             -465.8187

siesta: Atomic forces (eV/Ang):
     1    0.188005   -0.577369   -0.010205
     2    0.627017    0.205147    0.002834
     3   -0.820516    0.334583   -0.013502
----------------------------------------
   Tot   -0.005494   -0.037640   -0.020873
----------------------------------------
   Max    0.820516
   Res    0.420241    sqrt( Sum f_i^2 / 3N )
----------------------------------------
   Max    0.820516    constrained

Stress tensor Voigt[x,y,z,yz,xz,xy] (kbar):       -4.66       -2.11       -1.07        0.02        0.02        0.73
(Free)E + p*V (eV/cell)     -465.1509
Target enthalpy (eV/cell)     -465.8187

siesta: Stress tensor (static) (eV/Ang**3):
        -0.002775    0.000247   -0.000025
         0.000246   -0.000959    0.000012
        -0.000026    0.000012   -0.000417

siesta: Pressure (static):          2.21722344  kBar

siesta: Stress tensor (total) (eV/Ang**3):
        -0.002906    0.000458    0.000013
         0.000458   -0.001320    0.000015
         0.000011    0.000015   -0.000665

siesta: Pressure (total):          2.61215475  kBar
 Anneal: Kinetic Energy=    1.1073685651262571E-002
 Anneal: Velocity scale factor =   0.99899949949937417     
 Anneal: Cell scale factor =    1.0000021352931912     

siesta: Temp_ion =     581.660 K

                     ====================================
                        Begin MD step =      4
                     ====================================

outcoor: Atomic coordinates (Ang):                          
    0.00057924   -0.00131245    0.00116205   1       1  O
    0.74455603    0.60800329   -0.00031558   2       2  H
   -0.75373636    0.58472391   -0.01810927   2       3  H

outcell: Unit cell vectors (Ang):
        8.000216    0.000000    0.000000
        0.000000    8.000108    0.000000
        0.000000    0.000000    6.400041

outcell: Cell vector modules (Ang)   :    8.000216    8.000108    6.400041
outcell: Cell angles (23,13,12) (deg):     90.0000     90.0000     90.0000
outcell: Cell volume (Ang**3)        :    409.6192
<dSpData1D:S at geom step 4
  <sparsity:sparsity for geom step 4
    nrows_g=23 nrows=3 sparsity=.1304 nnzs=69, refcount: 7>
  <dData1D:(new from dSpData1D) n=69, refcount: 1>
refcount: 1>
new_DM -- step:     4
Re-using DM from previous geometries...
Number of DMs in history: 1
 DM extrapolation coefficients: 
1   1.00000
New DM after history re-use:
<dSpData2D:SpM extrapolated using coords
  <sparsity:sparsity for geom step 4
    nrows_g=23 nrows=3 sparsity=.1304 nnzs=69, refcount: 9>
  <dData2D:(temp array for extrapolation) n=69 m=1, refcount: 1>
refcount: 1>
No. of atoms with KB's overlaping orbs in proc 0. Max # of overlaps:       3      23
New grid distribution:   1
           1       1:   25    1:   13    1:    5
           2       1:   25    1:   13    6:   10
           3       1:   25    1:   13   11:   15
           4       1:   25    1:   13   16:   20
           5       1:   25   14:   25    1:    5
           6       1:   25   14:   25    6:   10
           7       1:   25   14:   25   11:   15
           8       1:   25   14:   25   16:   20

InitMesh: MESH =    50 x    50 x    40 =      100000
InitMesh: (bp) =    25 x    25 x    20 =       12500
InitMesh: Mesh cutoff (required, used) =   100.000   107.954 Ry
ExtMesh (bp) on 0 =    57 x    45 x    37 =       94905
New grid distribution:   2
           1       7:   25    6:   25    1:    6
           2       7:   25    1:    5    1:    6
           3       7:   25    1:    5    7:   20
           4       1:    6    1:    5    7:   20
           5       1:    6    6:   25    1:    6
           6       1:    6    1:    5    1:    6
           7       7:   25    6:   25    7:   20
           8       1:    6    6:   25    7:   20
New grid distribution:   3
           1       1:    9    7:   25    1:    7
           2      11:   25    1:    6    1:    8
           3       1:    9    7:   25    8:   20
           4      11:   25    1:    6    9:   20
           5      10:   25    7:   25    1:    7
           6       1:   10    1:    6    9:   20
           7      10:   25    7:   25    8:   20
           8       1:   10    1:    6    1:    8
Setting up quadratic distribution...
ExtMesh (bp) on 0 =    51 x    52 x    38 =      100776
PhiOnMesh: Number of (b)points on node 0 =                 2280
PhiOnMesh: nlist on node 0 =                 5142

        iscf     Eharris(eV)        E_KS(eV)     FreeEng(eV)     dDmax    Ef(eV) dHmax(eV)
   scf:    1     -465.820573     -465.817113     -465.817113  0.005444 -2.173877  0.048118
   scf:    2     -465.816815     -465.817062     -465.817062  0.001847 -2.203657  0.072639
   scf:    3     -465.817228     -465.817185     -465.817185  0.001105 -2.185707  0.004304
   scf:    4     -465.817187     -465.817186     -465.817186  0.000042 -2.185819  0.002350
   scf:    5     -465.817188     -465.817187     -465.817187  0.000066 -2.186046  0.000654

SCF Convergence by DM+H criterion
max |DM_out - DM_in|         :     0.0000658370
max |H_out - H_in|      (eV) :     0.0006536883
SCF cycle converged after 5 iterations

Using DM_out to compute the final energy and forces
No. of atoms with KB's overlaping orbs in proc 0. Max # of overlaps:       3      23

siesta: E_KS(eV) =             -465.8172

siesta: Atomic forces (eV/Ang):
     1    0.276054   -0.489119   -0.015292
     2    0.588865    0.134925    0.005016
     3   -0.872559    0.325772   -0.020239
----------------------------------------
   Tot   -0.007639   -0.028421   -0.030515
----------------------------------------
   Max    0.872559
   Res    0.414804    sqrt( Sum f_i^2 / 3N )
----------------------------------------
   Max    0.872559    constrained

Stress tensor Voigt[x,y,z,yz,xz,xy] (kbar):       -4.66       -1.93       -1.06        0.04       -0.02        0.90
(Free)E + p*V (eV/cell)     -465.1643
Target enthalpy (eV/cell)     -465.8172

siesta: Stress tensor (static) (eV/Ang**3):
        -0.002797    0.000363   -0.000039
         0.000363   -0.000839    0.000017
        -0.000041    0.000018   -0.000416

siesta: Pressure (static):          2.16454844  kBar

siesta: Stress tensor (total) (eV/Ang**3):
        -0.002910    0.000564   -0.000013
         0.000564   -0.001207    0.000026
        -0.000015    0.000026   -0.000664

siesta: Pressure (total):          2.55381831  kBar
 Anneal: Kinetic Energy=    1.0919202069243034E-002
 Anneal: Velocity scale factor =   0.99899949949937417     
 Anneal: Cell scale factor =    1.0000021322789083     

siesta: Temp_ion =     573.546 K

                     ====================================
                        Begin MD step =      5
                     ====================================

outcoor: Atomic coordinates (Ang):                          
    0.00078191   -0.00177423    0.00154729   1       1  O
    0.74088848    0.61544474   -0.00041758   2       2  H
   -0.75328549    0.58454969   -0.02413354   2       3  H

outcell: Unit cell vectors (Ang):
        8.000291    0.000000    0.000000
        0.000000    8.000139    0.000000
        0.000000    0.000000    6.400055

outcell: Cell vector modules (Ang)   :    8.000291    8.000139    6.400055
outcell: Cell angles (23,13,12) (deg):     90.0000     90.0000     90.0000
outcell: Cell volume (Ang**3)        :    409.6255
<dSpData1D:S at geom step 5
  <sparsity:sparsity for geom step 5
    nrows_g=23 nrows=3 sparsity=.1304 nnzs=69, refcount: 7>
  <dData1D:(new from dSpData1D) n=69, refcount: 1>
refcount: 1>
new_DM -- step:     5
Re-using DM from previous geometries...
Number of DMs in history: 1
 DM extrapolation coefficients: 
1   1.00000
New DM after history re-use:
<dSpData2D:SpM extrapolated using coords
  <sparsity:sparsity for geom step 5
    nrows_g=23 nrows=3 sparsity=.1304 nnzs=69, refcount: 9>
  <dData2D:(temp array for extrapolation) n=69 m=1, refcount: 1>
refcount: 1>
No. of atoms with KB's overlaping orbs in proc 0. Max # of overlaps:       3      23
New grid distribution:   1
           1       1:   25    1:   13    1:    5
           2       1:   25    1:   13    6:   10
           3       1:   25    1:   13   11:   15
           4       1:   25    1:   13   16:   20
           5       1:   25   14:   25    1:    5
           6       1:   25   14:   25    6:   10
           7       1:   25   14:   25   11:   15
           8       1:   25   14:   25   16:   20

InitMesh: MESH =    50 x    50 x    40 =      100000
InitMesh: (bp) =    25 x    25 x    20 =       12500
InitMesh: Mesh cutoff (required, used) =   100.000   107.952 Ry
ExtMesh (bp) on 0 =    57 x    45 x    37 =       94905
New grid distribution:   2
           1       7:   25    6:   25    1:    6
           2       7:   25    1:    5    1:    6
           3       7:   25    1:    5    7:   20
           4       1:    6    1:    5    7:   20
           5       1:    6    6:   25    1:    6
           6       1:    6    1:    5    1:    6
           7       7:   25    6:   25    7:   20
           8       1:    6    6:   25    7:   20
New grid distribution:   3
           1       1:    9    7:   25    1:    7
           2      11:   25    1:    6    1:    8
           3       1:    9    7:   25    8:   20
           4      11:   25    1:    6    9:   20
           5      10:   25    7:   25    1:    7
           6       1:   10    1:    6    9:   20
           7      10:   25    7:   25    8:   20
           8       1:   10    1:    6    1:    8
Setting up quadratic distribution...
ExtMesh (bp) on 0 =    51 x    52 x    38 =      100776
PhiOnMesh: Number of (b)points on node 0 =                 2280
PhiOnMesh: nlist on node 0 =                 5148

        iscf     Eharris(eV)        E_KS(eV)     FreeEng(eV)     dDmax    Ef(eV) dHmax(eV)
   scf:    1     -465.822665     -465.815686     -465.815686  0.005491 -2.205644  0.053166
   scf:    2     -465.815296     -465.815608     -465.815608  0.002056 -2.238532  0.081704
   scf:    3     -465.815819     -465.815765     -465.815765  0.001239 -2.218535  0.004421
   scf:    4     -465.815768     -465.815767     -465.815767  0.000043 -2.218695  0.002433
   scf:    5     -465.815768     -465.815767     -465.815767  0.000068 -2.218992  0.000661

SCF Convergence by DM+H criterion
max |DM_out - DM_in|         :     0.0000680728
max |H_out - H_in|      (eV) :     0.0006613252
SCF cycle converged after 5 iterations

Using DM_out to compute the final energy and forces
No. of atoms with KB's overlaping orbs in proc 0. Max # of overlaps:       3      23

siesta: E_KS(eV) =             -465.8158

siesta: Atomic forces (eV/Ang):
     1    0.355451   -0.381663   -0.021368
     2    0.540718    0.057261    0.007775
     3   -0.906185    0.305068   -0.026526
----------------------------------------
   Tot   -0.010016   -0.019334   -0.040118
----------------------------------------
   Max    0.906185
   Res    0.405945    sqrt( Sum f_i^2 / 3N )
----------------------------------------
   Max    0.906185    constrained

Stress tensor Voigt[x,y,z,yz,xz,xy] (kbar):       -4.59       -1.70       -1.06        0.06       -0.07        1.06
(Free)E + p*V (eV/cell)     -465.1885
Target enthalpy (eV/cell)     -465.8158

siesta: Stress tensor (static) (eV/Ang**3):
        -0.002769    0.000471   -0.000055
         0.000470   -0.000688    0.000021
        -0.000057    0.000022   -0.000417

siesta: Pressure (static):          2.06956798  kBar

siesta: Stress tensor (total) (eV/Ang**3):
        -0.002868    0.000661   -0.000041
         0.000660   -0.001062    0.000035
        -0.000043    0.000035   -0.000665

siesta: Pressure (total):          2.45340123  kBar
 Anneal: Kinetic Energy=    1.0770801223632791E-002
 Anneal: Velocity scale factor =   0.99899949949937417     
 Anneal: Cell scale factor =    1.0000021340229015     

siesta: Temp_ion =     565.751 K

                     ====================================
                        Begin MD step =      6
                     ====================================

outcoor: Atomic coordinates (Ang):                          
    0.00099268   -0.00224422    0.00193124   1       1  O
    0.73743304    0.62289276   -0.00051643   2       2  H
   -0.75317888    0.58449116   -0.03015583   2       3  H

outcell: Unit cell vectors (Ang):
        8.000364    0.000000    0.000000
        0.000000    8.000166    0.000000
        0.000000    0.000000    6.400068

outcell: Cell vector modules (Ang)   :    8.000364    8.000166    6.400068
outcell: Cell angles (23,13,12) (deg):     90.0000     90.0000     90.0000
outcell: Cell volume (Ang**3)        :    409.6315
<dSpData1D:S at geom step 6
  <sparsity:sparsity for geom step 6
    nrows_g=23 nrows=3 sparsity=.1304 nnzs=69, refcount: 7>
  <dData1D:(new from dSpData1D) n=69, refcount: 1>
refcount: 1>
new_DM -- step:     6
Re-using DM from previous geometries...
Number of DMs in history: 1
 DM extrapolation coefficients: 
1   1.00000
New DM after history re-use:
<dSpData2D:SpM extrapolated using coords
  <sparsity:sparsity for geom step 6
    nrows_g=23 nrows=3 sparsity=.1304 nnzs=69, refcount: 9>
  <dData2D:(temp array for extrapolation) n=69 m=1, refcount: 1>
refcount: 1>
No. of atoms with KB's overlaping orbs in proc 0. Max # of overlaps:       3      23
New grid distribution:   1
           1       1:   25    1:   13    1:    5
           2       1:   25    1:   13    6:   10
           3       1:   25    1:   13   11:   15
           4       1:   25    1:   13   16:   20
           5       1:   25   14:   25    1:    5
           6       1:   25   14:   25    6:   10
           7       1:   25   14:   25   11:   15
           8       1:   25   14:   25   16:   20

InitMesh: MESH =    50 x    50 x    40 =      100000
InitMesh: (bp) =    25 x    25 x    20 =       12500
InitMesh: Mesh cutoff (required, used) =   100.000   107.950 Ry
ExtMesh (bp) on 0 =    57 x    45 x    37 =       94905
New grid distribution:   2
           1       7:   25    6:   25    1:    6
           2       7:   25    1:    5    1:    6
           3       7:   25    1:    5    7:   20
           4       1:    6    1:    5    7:   20
           5       1:    6    6:   25    1:    6
           6       1:    6    1:    5    1:    6
           7       7:   25    6:   25    7:   20
           8       1:    6    6:   25    7:   20
New grid distribution:   3
           1       1:    9    7:   25    1:    7
           2      11:   25    1:    6    1:    8
           3       1:    9    7:   25    8:   20
           4      11:   25    1:    6    9:   20
           5      10:   25    7:   25    1:    7
           6       1:   10    1:    6    9:   20
           7      10:   25    7:   25    8:   20
           8       1:   10    1:    6    1:    8
Setting up quadratic distribution...
ExtMesh (bp) on 0 =    51 x    52 x    38 =      100776
PhiOnMesh: Number of (b)points on node 0 =                 2280
PhiOnMesh: nlist on node 0 =                 5157

        iscf     Eharris(eV)        E_KS(eV)     FreeEng(eV)     dDmax    Ef(eV) dHmax(eV)
   scf:    1     -465.824657     -465.814295     -465.814295  0.005535 -2.237695  0.057792
   scf:    2     -465.813825     -465.814205     -465.814205  0.002249 -2.273409  0.090215
   scf:    3     -465.814446     -465.814381     -465.814381  0.001364 -2.251541  0.004445
   scf:    4     -465.814384     -465.814383     -465.814383  0.000044 -2.251740  0.002461
   scf:    5     -465.814384     -465.814383     -465.814383  0.000070 -2.252099  0.000680

SCF Convergence by DM+H criterion
max |DM_out - DM_in|         :     0.0000700654
max |H_out - H_in|      (eV) :     0.0006801501
SCF cycle converged after 5 iterations

Using DM_out to compute the final energy and forces
No. of atoms with KB's overlaping orbs in proc 0. Max # of overlaps:       3      23

siesta: E_KS(eV) =             -465.8144

siesta: Atomic forces (eV/Ang):
     1    0.424544   -0.256177   -0.028457
     2    0.484481   -0.026699    0.011063
     3   -0.920960    0.272474   -0.031900
----------------------------------------
   Tot   -0.011935   -0.010402   -0.049294
----------------------------------------
   Max    0.920960
   Res    0.395201    sqrt( Sum f_i^2 / 3N )
----------------------------------------
   Max    0.920960    constrained

Stress tensor Voigt[x,y,z,yz,xz,xy] (kbar):       -4.45       -1.42       -1.06        0.07       -0.11        1.19
(Free)E + p*V (eV/cell)     -465.2236
Target enthalpy (eV/cell)     -465.8144

siesta: Stress tensor (static) (eV/Ang**3):
        -0.002692    0.000567   -0.000070
         0.000566   -0.000508    0.000024
        -0.000072    0.000024   -0.000418

siesta: Pressure (static):          1.93193087  kBar

siesta: Stress tensor (total) (eV/Ang**3):
        -0.002778    0.000746   -0.000069
         0.000746   -0.000884    0.000042
        -0.000071    0.000042   -0.000665

siesta: Pressure (total):          2.31054168  kBar
 Anneal: Kinetic Energy=    1.0625865595195729E-002
 Anneal: Velocity scale factor =   0.99899949949937417     
 Anneal: Cell scale factor =    1.0000021349405195     

siesta: Temp_ion =     558.138 K

                     ====================================
                        Begin MD step =      7
                     ====================================

outcoor: Atomic coordinates (Ang):                          
    0.00121319   -0.00271939    0.00231374   1       1  O
    0.73416788    0.63031545   -0.00061088   2       2  H
   -0.75342131    0.58453568   -0.03617819   2       3  H

outcell: Unit cell vectors (Ang):
        8.000435    0.000000    0.000000
        0.000000    8.000189    0.000000
        0.000000    0.000000    6.400082

outcell: Cell vector modules (Ang)   :    8.000435    8.000189    6.400082
outcell: Cell angles (23,13,12) (deg):     90.0000     90.0000     90.0000
outcell: Cell volume (Ang**3)        :    409.6372
<dSpData1D:S at geom step 7
  <sparsity:sparsity for geom step 7
    nrows_g=23 nrows=3 sparsity=.1304 nnzs=69, refcount: 7>
  <dData1D:(new from dSpData1D) n=69, refcount: 1>
refcount: 1>
new_DM -- step:     7
Re-using DM from previous geometries...
Number of DMs in history: 1
 DM extrapolation coefficients: 
1   1.00000
New DM after history re-use:
<dSpData2D:SpM extrapolated using coords
  <sparsity:sparsity for geom step 7
    nrows_g=23 nrows=3 sparsity=.1304 nnzs=69, refcount: 9>
  <dData2D:(temp array for extrapolation) n=69 m=1, refcount: 1>
refcount: 1>
No. of atoms with KB's overlaping orbs in proc 0. Max # of overlaps:       3      23
New grid distribution:   1
           1       1:   25    1:   13    1:    5
           2       1:   25    1:   13    6:   10
           3       1:   25    1:   13   11:   15
           4       1:   25    1:   13   16:   20
           5       1:   25   14:   25    1:    5
           6       1:   25   14:   25    6:   10
           7       1:   25   14:   25   11:   15
           8       1:   25   14:   25   16:   20

InitMesh: MESH =    50 x    50 x    40 =      100000
InitMesh: (bp) =    25 x    25 x    20 =       12500
InitMesh: Mesh cutoff (required, used) =   100.000   107.948 Ry
ExtMesh (bp) on 0 =    57 x    45 x    37 =       94905
New grid distribution:   2
           1       7:   25    6:   25    1:    6
           2       7:   25    1:    5    1:    6
           3       7:   25    1:    5    7:   20
           4       1:    6    1:    5    7:   20
           5       1:    6    6:   25    1:    6
           6       1:    6    1:    5    1:    6
           7       7:   25    6:   25    7:   20
           8       1:    6    6:   25    7:   20
New grid distribution:   3
           1       1:    9    7:   25    1:    7
           2      11:   25    1:    6    1:    8
           3       1:    9    7:   25    8:   20
           4      11:   25    1:    6    9:   20
           5      10:   25    7:   25    1:    7
           6       1:   10    1:    6    9:   20
           7      10:   25    7:   25    8:   20
           8       1:   10    1:    6    1:    8
Setting up quadratic distribution...
ExtMesh (bp) on 0 =    51 x    52 x    38 =      100776
PhiOnMesh: Number of (b)points on node 0 =                 2280
PhiOnMesh: nlist on node 0 =                 5159

        iscf     Eharris(eV)        E_KS(eV)     FreeEng(eV)     dDmax    Ef(eV) dHmax(eV)
   scf:    1     -465.826421     -465.812889     -465.812889  0.005577 -2.269859  0.061890
   scf:    2     -465.812327     -465.812776     -465.812776  0.002421 -2.308053  0.097957
   scf:    3     -465.813056     -465.812981     -465.812981  0.001476 -2.284527  0.004392
   scf:    4     -465.812984     -465.812983     -465.812983  0.000044 -2.284759  0.002443
   scf:    5     -465.812984     -465.812983     -465.812983  0.000072 -2.285171  0.000713

SCF Convergence by DM+H criterion
max |DM_out - DM_in|         :     0.0000719618
max |H_out - H_in|      (eV) :     0.0007128226
SCF cycle converged after 5 iterations

Using DM_out to compute the final energy and forces
No. of atoms with KB's overlaping orbs in proc 0. Max # of overlaps:       3      23

siesta: E_KS(eV) =             -465.8130

siesta: Atomic forces (eV/Ang):
     1    0.481360   -0.114070   -0.037318
     2    0.422216   -0.115657    0.014839
     3   -0.917298    0.228253   -0.035992
----------------------------------------
   Tot   -0.013722   -0.001474   -0.058471
----------------------------------------
   Max    0.917298
   Res    0.384824    sqrt( Sum f_i^2 / 3N )
----------------------------------------
   Max    0.917298    constrained

Stress tensor Voigt[x,y,z,yz,xz,xy] (kbar):       -4.24       -1.08       -1.07        0.08       -0.16        1.31
(Free)E + p*V (eV/cell)     -465.2683
Target enthalpy (eV/cell)     -465.8130

siesta: Stress tensor (static) (eV/Ang**3):
        -0.002570    0.000648   -0.000085
         0.000648   -0.000301    0.000024
        -0.000086    0.000024   -0.000419

siesta: Pressure (static):          1.75681028  kBar

siesta: Stress tensor (total) (eV/Ang**3):
        -0.002647    0.000818   -0.000097
         0.000818   -0.000677    0.000047
        -0.000099    0.000047   -0.000665

siesta: Pressure (total):          2.13032089  kBar
 Anneal: Kinetic Energy=    1.0479895318708739E-002
 Anneal: Velocity scale factor =   0.99899949949937417     
 Anneal: Cell scale factor =    1.0000021369592178     

siesta: Temp_ion =     550.471 K

                     ====================================
                        Begin MD step =      8
                     ====================================

outcoor: Atomic coordinates (Ang):                          
    0.00144478   -0.00319635    0.00269459   1       1  O
    0.73106893    0.63767907   -0.00069953   2       2  H
   -0.75401062    0.58466622   -0.04220217   2       3  H

outcell: Unit cell vectors (Ang):
        8.000502    0.000000    0.000000
        0.000000    8.000206    0.000000
        0.000000    0.000000    6.400096

outcell: Cell vector modules (Ang)   :    8.000502    8.000206    6.400096
outcell: Cell angles (23,13,12) (deg):     90.0000     90.0000     90.0000
outcell: Cell volume (Ang**3)        :    409.6424
<dSpData1D:S at geom step 8
  <sparsity:sparsity for geom step 8
    nrows_g=23 nrows=3 sparsity=.1304 nnzs=69, refcount: 7>
  <dData1D:(new from dSpData1D) n=69, refcount: 1>
refcount: 1>
new_DM -- step:     8
Re-using DM from previous geometries...
Number of DMs in history: 1
 DM extrapolation coefficients: 
1   1.00000
New DM after history re-use:
<dSpData2D:SpM extrapolated using coords
  <sparsity:sparsity for geom step 8
    nrows_g=23 nrows=3 sparsity=.1304 nnzs=69, refcount: 9>
  <dData2D:(temp array for extrapolation) n=69 m=1, refcount: 1>
refcount: 1>
No. of atoms with KB's overlaping orbs in proc 0. Max # of overlaps:       3      23
New grid distribution:   1
           1       1:   25    1:   13    1:    5
           2       1:   25    1:   13    6:   10
           3       1:   25    1:   13   11:   15
           4       1:   25    1:   13   16:   20
           5       1:   25   14:   25    1:    5
           6       1:   25   14:   25    6:   10
           7       1:   25   14:   25   11:   15
           8       1:   25   14:   25   16:   20

InitMesh: MESH =    50 x    50 x    40 =      100000
InitMesh: (bp) =    25 x    25 x    20 =       12500
InitMesh: Mesh cutoff (required, used) =   100.000   107.946 Ry
ExtMesh (bp) on 0 =    57 x    45 x    37 =       94905
New grid distribution:   2
           1       7:   25    6:   25    1:    6
           2       7:   25    1:    5    1:    6
           3       7:   25    1:    5    7:   20
           4       1:    6    1:    5    7:   20
           5       1:    6    6:   25    1:    6
           6       1:    6    1:    5    1:    6
           7       7:   25    6:   25    7:   20
           8       1:    6    6:   25    7:   20
New grid distribution:   3
           1       1:    9    7:   25    1:    7
           2      11:   25    1:    6    1:    8
           3       1:    9    7:   25    8:   20
           4      11:   25    1:    6    9:   20
           5      10:   25    7:   25    1:    7
           6       1:   10    1:    6    9:   20
           7      10:   25    7:   25    8:   20
           8       1:   10    1:    6    1:    8
Setting up quadratic distribution...
ExtMesh (bp) on 0 =    51 x    52 x    38 =      100776
PhiOnMesh: Number of (b)points on node 0 =                 2280
PhiOnMesh: nlist on node 0 =                 5148

        iscf     Eharris(eV)        E_KS(eV)     FreeEng(eV)     dDmax    Ef(eV) dHmax(eV)
   scf:    1     -465.827807     -465.811389     -465.811389  0.005615 -2.301955  0.065379
   scf:    2     -465.810739     -465.811253     -465.811253  0.002570 -2.342238  0.104763
   scf:    3     -465.811572     -465.811487     -465.811487  0.001575 -2.317298  0.004273
   scf:    4     -465.811490     -465.811489     -465.811489  0.000045 -2.317556  0.002385
   scf:    5     -465.811490     -465.811489     -465.811489  0.000074 -2.318013  0.000737

SCF Convergence by DM+H criterion
max |DM_out - DM_in|         :     0.0000738353
max |H_out - H_in|      (eV) :     0.0007366221
SCF cycle converged after 5 iterations

Using DM_out to compute the final energy and forces
No. of atoms with KB's overlaping orbs in proc 0. Max # of overlaps:       3      23

siesta: E_KS(eV) =             -465.8115

siesta: Atomic forces (eV/Ang):
     1    0.524329    0.041245   -0.048038
     2    0.355886   -0.208215    0.019022
     3   -0.895751    0.173097   -0.038424
----------------------------------------
   Tot   -0.015537    0.006127   -0.067440
----------------------------------------
   Max    0.895751
   Res    0.377581    sqrt( Sum f_i^2 / 3N )
----------------------------------------
   Max    0.895751    constrained

Stress tensor Voigt[x,y,z,yz,xz,xy] (kbar):       -3.98       -0.71       -1.07        0.08       -0.20        1.40
(Free)E + p*V (eV/cell)     -465.3210
Target enthalpy (eV/cell)     -465.8115

siesta: Stress tensor (static) (eV/Ang**3):
        -0.002410    0.000714   -0.000097
         0.000713   -0.000073    0.000022
        -0.000099    0.000022   -0.000420

siesta: Pressure (static):          1.55021226  kBar

siesta: Stress tensor (total) (eV/Ang**3):
        -0.002481    0.000875   -0.000123
         0.000875   -0.000445    0.000048
        -0.000125    0.000048   -0.000666

siesta: Pressure (total):          1.91858682  kBar
 Anneal: Kinetic Energy=    1.0327108434862026E-002
 Anneal: Velocity scale factor =   0.99899949949937417     
 Anneal: Cell scale factor =    1.0000021409663837     

siesta: Temp_ion =     542.445 K

                     ====================================
                        Begin MD step =      9
                     ====================================

outcoor: Atomic coordinates (Ang):                          
    0.00168845   -0.00367136    0.00307353   1       1  O
    0.72811064    0.64494859   -0.00078079   2       2  H
   -0.75493785    0.58486166   -0.04822868   2       3  H

outcell: Unit cell vectors (Ang):
        8.000566    0.000000    0.000000
        0.000000    8.000217    0.000000
        0.000000    0.000000    6.400109

outcell: Cell vector modules (Ang)   :    8.000566    8.000217    6.400109
outcell: Cell angles (23,13,12) (deg):     90.0000     90.0000     90.0000
outcell: Cell volume (Ang**3)        :    409.6471
<dSpData1D:S at geom step 9
  <sparsity:sparsity for geom step 9
    nrows_g=23 nrows=3 sparsity=.1304 nnzs=69, refcount: 7>
  <dData1D:(new from dSpData1D) n=69, refcount: 1>
refcount: 1>
new_DM -- step:     9
Re-using DM from previous geometries...
Number of DMs in history: 1
 DM extrapolation coefficients: 
1   1.00000
New DM after history re-use:
<dSpData2D:SpM extrapolated using coords
  <sparsity:sparsity for geom step 9
    nrows_g=23 nrows=3 sparsity=.1304 nnzs=69, refcount: 9>
  <dData2D:(temp array for extrapolation) n=69 m=1, refcount: 1>
refcount: 1>
No. of atoms with KB's overlaping orbs in proc 0. Max # of overlaps:       3      23
New grid distribution:   1
           1       1:   25    1:   13    1:    5
           2       1:   25    1:   13    6:   10
           3       1:   25    1:   13   11:   15
           4       1:   25    1:   13   16:   20
           5       1:   25   14:   25    1:    5
           6       1:   25   14:   25    6:   10
           7       1:   25   14:   25   11:   15
           8       1:   25   14:   25   16:   20

InitMesh: MESH =    50 x    50 x    40 =      100000
InitMesh: (bp) =    25 x    25 x    20 =       12500
InitMesh: Mesh cutoff (required, used) =   100.000   107.944 Ry
ExtMesh (bp) on 0 =    57 x    45 x    37 =       94905
New grid distribution:   2
           1       7:   25    6:   25    1:    6
           2       7:   25    1:    5    1:    6
           3       7:   25    1:    5    7:   20
           4       1:    6    1:    5    7:   20
           5       1:    6    6:   25    1:    6
           6       1:    6    1:    5    1:    6
           7       7:   25    6:   25    7:   20
           8       1:    6    6:   25    7:   20
New grid distribution:   3
           1       1:    9    7:   25    1:    7
           2      11:   25    1:    6    1:    8
           3       1:    9    7:   25    8:   20
           4      11:   25    1:    6    9:   20
           5      10:   25    7:   25    1:    7
           6       1:   10    1:    6    9:   20
           7      10:   25    7:   25    8:   20
           8       1:   10    1:    6    1:    8
Setting up quadratic distribution...
ExtMesh (bp) on 0 =    51 x    52 x    38 =      100776
PhiOnMesh: Number of (b)points on node 0 =                 2280
PhiOnMesh: nlist on node 0 =                 5156

        iscf     Eharris(eV)        E_KS(eV)     FreeEng(eV)     dDmax    Ef(eV) dHmax(eV)
   scf:    1     -465.828664     -465.809706     -465.809706  0.005649 -2.333813  0.068162
   scf:    2     -465.808977     -465.809549     -465.809549  0.002690 -2.375733  0.110452
   scf:    3     -465.809903     -465.809809     -465.809809  0.001656 -2.349662  0.004100
   scf:    4     -465.809811     -465.809810     -465.809810  0.000046 -2.349938  0.002295
   scf:    5     -465.809811     -465.809811     -465.809811  0.000076 -2.350431  0.000751

SCF Convergence by DM+H criterion
max |DM_out - DM_in|         :     0.0000757552
max |H_out - H_in|      (eV) :     0.0007510311
SCF cycle converged after 5 iterations

Using DM_out to compute the final energy and forces
No. of atoms with KB's overlaping orbs in proc 0. Max # of overlaps:       3      23

siesta: E_KS(eV) =             -465.8098

siesta: Atomic forces (eV/Ang):
     1    0.552874    0.207894   -0.061005
     2    0.287788   -0.302801    0.023589
     3   -0.857294    0.107952   -0.038873
----------------------------------------
   Tot   -0.016632    0.013045   -0.076289
----------------------------------------
   Max    0.857294
   Res    0.376504    sqrt( Sum f_i^2 / 3N )
----------------------------------------
   Max    0.857294    constrained

Stress tensor Voigt[x,y,z,yz,xz,xy] (kbar):       -3.66       -0.30       -1.07        0.07       -0.24        1.46
(Free)E + p*V (eV/cell)     -465.3809
Target enthalpy (eV/cell)     -465.8098

siesta: Stress tensor (static) (eV/Ang**3):
        -0.002218    0.000761   -0.000107
         0.000760    0.000177    0.000016
        -0.000108    0.000016   -0.000420

siesta: Pressure (static):          1.31446975  kBar

siesta: Stress tensor (total) (eV/Ang**3):
        -0.002286    0.000915   -0.000146
         0.000914   -0.000188    0.000044
        -0.000148    0.000045   -0.000667

siesta: Pressure (total):          1.67746924  kBar
 Anneal: Kinetic Energy=    1.0161117365229474E-002
 Anneal: Velocity scale factor =   0.99899949949937417     
 Anneal: Cell scale factor =    1.0000021425307277     

siesta: Temp_ion =     533.726 K

                     ====================================
                        Begin MD step =     10
                     ====================================

outcoor: Atomic coordinates (Ang):                          
    0.00194487   -0.00414044    0.00345026   1       1  O
    0.72526685    0.65208829   -0.00085294   2       2  H
   -0.75618770    0.58509714   -0.05425788   2       3  H

outcell: Unit cell vectors (Ang):
        8.000625    0.000000    0.000000
        0.000000    8.000222    0.000000
        0.000000    0.000000    6.400123

outcell: Cell vector modules (Ang)   :    8.000625    8.000222    6.400123
outcell: Cell angles (23,13,12) (deg):     90.0000     90.0000     90.0000
outcell: Cell volume (Ang**3)        :    409.6512
<dSpData1D:S at geom step 10
  <sparsity:sparsity for geom step 10
    nrows_g=23 nrows=3 sparsity=.1304 nnzs=69, refcount: 7>
  <dData1D:(new from dSpData1D) n=69, refcount: 1>
refcount: 1>
new_DM -- step:    10
Re-using DM from previous geometries...
Number of DMs in history: 1
 DM extrapolation coefficients: 
1   1.00000
New DM after history re-use:
<dSpData2D:SpM extrapolated using coords
  <sparsity:sparsity for geom step 10
    nrows_g=23 nrows=3 sparsity=.1304 nnzs=69, refcount: 9>
  <dData2D:(temp array for extrapolation) n=69 m=1, refcount: 1>
refcount: 1>
No. of atoms with KB's overlaping orbs in proc 0. Max # of overlaps:       3      23
New grid distribution:   1
           1       1:   25    1:   13    1:    5
           2       1:   25    1:   13    6:   10
           3       1:   25    1:   13   11:   15
           4       1:   25    1:   13   16:   20
           5       1:   25   14:   25    1:    5
           6       1:   25   14:   25    6:   10
           7       1:   25   14:   25   11:   15
           8       1:   25   14:   25   16:   20

InitMesh: MESH =    50 x    50 x    40 =      100000
InitMesh: (bp) =    25 x    25 x    20 =       12500
InitMesh: Mesh cutoff (required, used) =   100.000   107.943 Ry
ExtMesh (bp) on 0 =    57 x    45 x    37 =       94905
New grid distribution:   2
           1       7:   25    6:   25    1:    6
           2       7:   25    1:    5    1:    6
           3       7:   25    1:    5    7:   20
           4       1:    6    1:    5    7:   20
           5       1:    6    6:   25    1:    6
           6       1:    6    1:    5    1:    6
           7       7:   25    6:   25    7:   20
           8       1:    6    6:   25    7:   20
New grid distribution:   3
           1       1:    9    7:   25    1:    7
           2      11:   25    1:    6    1:    8
           3       1:    9    7:   25    8:   20
           4      11:   25    1:    6    9:   20
           5      10:   25    7:   25    1:    7
           6       1:   10    1:    6    9:   20
           7      10:   25    7:   25    8:   20
           8       1:   10    1:    6    1:    8
Setting up quadratic distribution...
ExtMesh (bp) on 0 =    51 x    52 x    38 =      100776
PhiOnMesh: Number of (b)points on node 0 =                 2280
PhiOnMesh: nlist on node 0 =                 5160

        iscf     Eharris(eV)        E_KS(eV)     FreeEng(eV)     dDmax    Ef(eV) dHmax(eV)
   scf:    1     -465.828837     -465.807739     -465.807739  0.005677 -2.365246  0.070173
   scf:    2     -465.806944     -465.807564     -465.807564  0.002780 -2.408319  0.114889
   scf:    3     -465.807946     -465.807845     -465.807845  0.001718 -2.381421  0.003884
   scf:    4     -465.807847     -465.807846     -465.807846  0.000046 -2.381710  0.002178
   scf:    5     -465.807848     -465.807847     -465.807847  0.000078 -2.382230  0.000756

SCF Convergence by DM+H criterion
max |DM_out - DM_in|         :     0.0000777459
max |H_out - H_in|      (eV) :     0.0007557535
SCF cycle converged after 5 iterations

Using DM_out to compute the final energy and forces
No. of atoms with KB's overlaping orbs in proc 0. Max # of overlaps:       3      23

siesta: E_KS(eV) =             -465.8078

siesta: Atomic forces (eV/Ang):
     1    0.566828    0.382563   -0.076419
     2    0.219579   -0.397546    0.028402
     3   -0.803889    0.034229   -0.037178
----------------------------------------
   Tot   -0.017481    0.019247   -0.085194
----------------------------------------
   Max    0.803889
   Res    0.384324    sqrt( Sum f_i^2 / 3N )
----------------------------------------
   Max    0.803889    constrained

Stress tensor Voigt[x,y,z,yz,xz,xy] (kbar):       -3.31        0.14       -1.07        0.06       -0.27        1.50
(Free)E + p*V (eV/cell)     -465.4462
Target enthalpy (eV/cell)     -465.8078

siesta: Stress tensor (static) (eV/Ang**3):
        -0.002001    0.000789   -0.000113
         0.000789    0.000442    0.000006
        -0.000115    0.000006   -0.000421

siesta: Pressure (static):          1.05719649  kBar

siesta: Stress tensor (total) (eV/Ang**3):
        -0.002069    0.000936   -0.000166
         0.000936    0.000088    0.000036
        -0.000168    0.000036   -0.000667

siesta: Pressure (total):          1.41435743  kBar
 Anneal: Kinetic Energy=    9.9758265514424318E-003
 Anneal: Velocity scale factor =   0.99899949949937417     
 Anneal: Cell scale factor =    1.0000021437897386     

siesta: Temp_ion =     523.994 K

                     ====================================
                        Begin MD step =     11
                     ====================================

outcoor: Atomic coordinates (Ang):                          
    0.00221433   -0.00459943    0.00382440   1       1  O
    0.72251144    0.65906245   -0.00091419   2       2  H
   -0.75773922    0.58534460   -0.06028914   2       3  H

outcell: Unit cell vectors (Ang):
        8.000678    0.000000    0.000000
        0.000000    8.000220    0.000000
        0.000000    0.000000    6.400137

outcell: Cell vector modules (Ang)   :    8.000678    8.000220    6.400137
outcell: Cell angles (23,13,12) (deg):     90.0000     90.0000     90.0000
outcell: Cell volume (Ang**3)        :    409.6547
<dSpData1D:S at geom step 11
  <sparsity:sparsity for geom step 11
    nrows_g=23 nrows=3 sparsity=.1304 nnzs=69, refcount: 7>
  <dData1D:(new from dSpData1D) n=69, refcount: 1>
refcount: 1>
new_DM -- step:    11
Re-using DM from previous geometries...
Number of DMs in history: 1
 DM extrapolation coefficients: 
1   1.00000
New DM after history re-use:
<dSpData2D:SpM extrapolated using coords
  <sparsity:sparsity for geom step 11
    nrows_g=23 nrows=3 sparsity=.1304 nnzs=69, refcount: 9>
  <dData2D:(temp array for extrapolation) n=69 m=1, refcount: 1>
refcount: 1>
No. of atoms with KB's overlaping orbs in proc 0. Max # of overlaps:       3      23
New grid distribution:   1
           1       1:   25    1:   13    1:    5
           2       1:   25    1:   13    6:   10
           3       1:   25    1:   13   11:   15
           4       1:   25    1:   13   16:   20
           5       1:   25   14:   25    1:    5
           6       1:   25   14:   25    6:   10
           7       1:   25   14:   25   11:   15
           8       1:   25   14:   25   16:   20

InitMesh: MESH =    50 x    50 x    40 =      100000
InitMesh: (bp) =    25 x    25 x    20 =       12500
InitMesh: Mesh cutoff (required, used) =   100.000   107.941 Ry
ExtMesh (bp) on 0 =    57 x    45 x    37 =       94905
New grid distribution:   2
           1       7:   25    6:   25    1:    6
           2       7:   25    1:    5    1:    6
           3       7:   25    1:    5    7:   20
           4       1:    6    1:    5    7:   20
           5       1:    6    6:   25    1:    6
           6       1:    6    1:    5    1:    6
           7       7:   25    6:   25    7:   20
           8       1:    6    6:   25    7:   20
New grid distribution:   3
           1       1:    9    7:   25    1:    7
           2      11:   25    1:    6    1:    8
           3       1:    9    7:   25    8:   20
           4      11:   25    1:    6    9:   20
           5      10:   25    7:   25    1:    7
           6       1:   10    1:    6    9:   20
           7      10:   25    7:   25    8:   20
           8       1:   10    1:    6    1:    8
Setting up quadratic distribution...
ExtMesh (bp) on 0 =    51 x    52 x    38 =      100776
PhiOnMesh: Number of (b)points on node 0 =                 2280
PhiOnMesh: nlist on node 0 =                 5152

        iscf     Eharris(eV)        E_KS(eV)     FreeEng(eV)     dDmax    Ef(eV) dHmax(eV)
   scf:    1     -465.828229     -465.805433     -465.805433  0.005701 -2.396078  0.071346
   scf:    2     -465.804590     -465.805245     -465.805245  0.002835 -2.439781  0.117937
   scf:    3     -465.805647     -465.805541     -465.805541  0.001759 -2.412386  0.003633
   scf:    4     -465.805543     -465.805542     -465.805542  0.000047 -2.412681  0.002040
   scf:    5     -465.805543     -465.805543     -465.805543  0.000080 -2.413219  0.000751

SCF Convergence by DM+H criterion
max |DM_out - DM_in|         :     0.0000798060
max |H_out - H_in|      (eV) :     0.0007507479
SCF cycle converged after 5 iterations

Using DM_out to compute the final energy and forces
No. of atoms with KB's overlaping orbs in proc 0. Max # of overlaps:       3      23

siesta: E_KS(eV) =             -465.8055

siesta: Atomic forces (eV/Ang):
     1    0.566116    0.561853   -0.093952
     2    0.152503   -0.490944    0.033463
     3   -0.737006   -0.046536   -0.033163
----------------------------------------
   Tot   -0.018386    0.024373   -0.093652
----------------------------------------
   Max    0.737006
   Res    0.402332    sqrt( Sum f_i^2 / 3N )
----------------------------------------
   Max    0.737006    constrained

Stress tensor Voigt[x,y,z,yz,xz,xy] (kbar):       -2.93        0.61       -1.07        0.04       -0.29        1.51
(Free)E + p*V (eV/cell)     -465.5165
Target enthalpy (eV/cell)     -465.8055

siesta: Stress tensor (static) (eV/Ang**3):
        -0.001758    0.000799   -0.000116
         0.000799    0.000718   -0.000007
        -0.000118   -0.000007   -0.000420

siesta: Pressure (static):          0.77981758  kBar

siesta: Stress tensor (total) (eV/Ang**3):
        -0.001827    0.000940   -0.000181
         0.000940    0.000378    0.000023
[...]
max |H_out - H_in|      (eV) :     0.0004662715
SCF cycle converged after 5 iterations

Using DM_out to compute the final energy and forces
No. of atoms with KB's overlaping orbs in proc 0. Max # of overlaps:       3      23

siesta: E_KS(eV) =             -465.7753

siesta: Atomic forces (eV/Ang):
     1   -0.501702   -0.806504   -0.201307
     2   -0.522599    0.225836   -0.273415
     3    0.983098    0.374271    0.265109
----------------------------------------
   Tot   -0.041203   -0.206397   -0.209612
----------------------------------------
   Max    0.983098
   Res    0.528981    sqrt( Sum f_i^2 / 3N )
----------------------------------------
   Max    0.983098    constrained

Stress tensor Voigt[x,y,z,yz,xz,xy] (kbar):        4.36       -1.50       -0.21        0.39        1.62        0.81
(Free)E + p*V (eV/cell)     -466.0009
Target enthalpy (eV/cell)     -465.7753

siesta: Stress tensor (static) (eV/Ang**3):
         0.002808    0.000439    0.000973
         0.000438   -0.000764    0.000366
         0.000972    0.000366   -0.000038

siesta: Pressure (static):         -1.07106247  kBar

siesta: Stress tensor (total) (eV/Ang**3):
         0.002719    0.000507    0.001013
         0.000506   -0.000935    0.000244
         0.001012    0.000244   -0.000132

siesta: Pressure (total):         -0.88234054  kBar
 Anneal: Kinetic Energy=    5.4298060494753549E-003
 Anneal: Velocity scale factor =   0.99899949949937417     
 Anneal: Cell scale factor =    1.0000004082832565     

siesta: Temp_ion =     285.208 K

                     ====================================
                        Begin MD step =     18
                     ====================================

outcoor: Atomic coordinates (Ang):                          
    0.01192824    0.01234638    0.01144730   1       1  O
    0.64109071    0.74589723    0.03733309   2       2  H
   -0.85806564    0.21662938   -0.39470229   2       3  H

outcell: Unit cell vectors (Ang):
        8.000244    0.000000    0.000000
        0.000000    7.999570    0.000000
        0.000000    0.000000    6.400798

outcell: Cell vector modules (Ang)   :    8.000244    7.999570    6.400798
outcell: Cell angles (23,13,12) (deg):     90.0000     90.0000     90.0000
outcell: Cell volume (Ang**3)        :    409.6415
<dSpData1D:S at geom step 18
  <sparsity:sparsity for geom step 18
    nrows_g=23 nrows=3 sparsity=.1304 nnzs=69, refcount: 7>
  <dData1D:(new from dSpData1D) n=69, refcount: 1>
refcount: 1>
new_DM -- step:    18
Re-using DM from previous geometries...
Number of DMs in history: 1
 DM extrapolation coefficients: 
1   1.00000
New DM after history re-use:
<dSpData2D:SpM extrapolated using coords
  <sparsity:sparsity for geom step 18
    nrows_g=23 nrows=3 sparsity=.1304 nnzs=69, refcount: 9>
  <dData2D:(temp array for extrapolation) n=69 m=1, refcount: 1>
refcount: 1>
No. of atoms with KB's overlaping orbs in proc 0. Max # of overlaps:       3      23
New grid distribution:   1
           1       1:   25    1:   13    1:    5
           2       1:   25    1:   13    6:   10
           3       1:   25    1:   13   11:   15
           4       1:   25    1:   13   16:   20
           5       1:   25   14:   25    1:    5
           6       1:   25   14:   25    6:   10
           7       1:   25   14:   25   11:   15
           8       1:   25   14:   25   16:   20

InitMesh: MESH =    50 x    50 x    40 =      100000
InitMesh: (bp) =    25 x    25 x    20 =       12500
InitMesh: Mesh cutoff (required, used) =   100.000   107.933 Ry
ExtMesh (bp) on 0 =    57 x    45 x    37 =       94905
New grid distribution:   2
           1       8:   25    6:   25    1:    7
           2       8:   25    1:    5    1:    6
           3       8:   25    1:    5    7:   20
           4       1:    7    1:    5    8:   20
           5       1:    7    6:   25    1:    7
           6       1:    7    1:    5    1:    7
           7       8:   25    6:   25    8:   20
           8       1:    7    6:   25    8:   20
New grid distribution:   3
           1      17:   25    7:   25    1:   14
           2      11:   25    1:    6    1:   13
           3       1:   10    1:    6    9:   20
           4      11:   25    1:    6   14:   20
           5       1:   16    7:   25    1:    7
           6       1:   10    1:    6    1:    8
           7       1:   16    7:   25    8:   20
           8      17:   25    7:   25   15:   20
Setting up quadratic distribution...
ExtMesh (bp) on 0 =    50 x    52 x    39 =      101400
PhiOnMesh: Number of (b)points on node 0 =                 2520
PhiOnMesh: nlist on node 0 =                 4836

        iscf     Eharris(eV)        E_KS(eV)     FreeEng(eV)     dDmax    Ef(eV) dHmax(eV)
   scf:    1     -465.757019     -465.776659     -465.776659  0.006308 -1.830026  0.036241
   scf:    2     -465.776491     -465.776625     -465.776625  0.001644 -1.809846  0.054068
   scf:    3     -465.776709     -465.776687     -465.776687  0.000952 -1.822419  0.002699
   scf:    4     -465.776688     -465.776687     -465.776687  0.000053 -1.822334  0.001524
   scf:    5     -465.776688     -465.776688     -465.776688  0.000098 -1.822129  0.000539

SCF Convergence by DM+H criterion
max |DM_out - DM_in|         :     0.0000977731
max |H_out - H_in|      (eV) :     0.0005385160
SCF cycle converged after 5 iterations

Using DM_out to compute the final energy and forces
No. of atoms with KB's overlaping orbs in proc 0. Max # of overlaps:       3      23

siesta: E_KS(eV) =             -465.7767

siesta: Atomic forces (eV/Ang):
     1   -0.499605   -0.901222   -0.169936
     2   -0.452264    0.300155   -0.272011
     3    0.909605    0.391947    0.235691
----------------------------------------
   Tot   -0.042264   -0.209120   -0.206256
----------------------------------------
   Max    0.909605
   Res    0.526610    sqrt( Sum f_i^2 / 3N )
----------------------------------------
   Max    0.909605    constrained

Stress tensor Voigt[x,y,z,yz,xz,xy] (kbar):        3.88       -1.70       -0.25        0.43        1.52        0.71
(Free)E + p*V (eV/cell)     -465.9416
Target enthalpy (eV/cell)     -465.7767

siesta: Stress tensor (static) (eV/Ang**3):
         0.002532    0.000361    0.000903
         0.000361   -0.000902    0.000383
         0.000902    0.000382   -0.000065

siesta: Pressure (static):         -0.83579367  kBar

siesta: Stress tensor (total) (eV/Ang**3):
         0.002424    0.000442    0.000948
         0.000441   -0.001063    0.000268
         0.000947    0.000268   -0.000153

siesta: Pressure (total):         -0.64493385  kBar
 Anneal: Kinetic Energy=    5.5084063786457688E-003
 Anneal: Velocity scale factor =   0.99899949949937417     
 Anneal: Cell scale factor =    1.0000004798590068     

siesta: Temp_ion =     289.337 K

                     ====================================
                        Begin MD step =     19
                     ====================================

outcoor: Atomic coordinates (Ang):                          
    0.01192697    0.01251018    0.01136999   1       1  O
    0.63743658    0.74641237    0.03673654   2       2  H
   -0.85522388    0.21191260   -0.39823690   2       3  H

outcell: Unit cell vectors (Ang):
        8.000182    0.000000    0.000000
        0.000000    7.999597    0.000000
        0.000000    0.000000    6.400801

outcell: Cell vector modules (Ang)   :    8.000182    7.999597    6.400801
outcell: Cell angles (23,13,12) (deg):     90.0000     90.0000     90.0000
outcell: Cell volume (Ang**3)        :    409.6399
<dSpData1D:S at geom step 19
  <sparsity:sparsity for geom step 19
    nrows_g=23 nrows=3 sparsity=.1304 nnzs=69, refcount: 7>
  <dData1D:(new from dSpData1D) n=69, refcount: 1>
refcount: 1>
new_DM -- step:    19
Re-using DM from previous geometries...
Number of DMs in history: 1
 DM extrapolation coefficients: 
1   1.00000
New DM after history re-use:
<dSpData2D:SpM extrapolated using coords
  <sparsity:sparsity for geom step 19
    nrows_g=23 nrows=3 sparsity=.1304 nnzs=69, refcount: 9>
  <dData2D:(temp array for extrapolation) n=69 m=1, refcount: 1>
refcount: 1>
No. of atoms with KB's overlaping orbs in proc 0. Max # of overlaps:       3      23
New grid distribution:   1
           1       1:   25    1:   13    1:    5
           2       1:   25    1:   13    6:   10
           3       1:   25    1:   13   11:   15
           4       1:   25    1:   13   16:   20
           5       1:   25   14:   25    1:    5
           6       1:   25   14:   25    6:   10
           7       1:   25   14:   25   11:   15
           8       1:   25   14:   25   16:   20

InitMesh: MESH =    50 x    50 x    40 =      100000
InitMesh: (bp) =    25 x    25 x    20 =       12500
InitMesh: Mesh cutoff (required, used) =   100.000   107.933 Ry
ExtMesh (bp) on 0 =    57 x    45 x    37 =       94905
New grid distribution:   2
           1       8:   25    6:   25    1:    7
           2       8:   25    1:    5    1:    6
           3       8:   25    1:    5    7:   20
           4       1:    7    1:    5    8:   20
           5       1:    7    6:   25    1:    7
           6       1:    7    1:    5    1:    7
           7       8:   25    6:   25    8:   20
           8       1:    7    6:   25    8:   20
New grid distribution:   3
           1      17:   25    7:   25    1:   14
           2      11:   25    1:    6    1:   13
           3       1:   10    1:    6    9:   20
           4      11:   25    1:    6   14:   20
           5       1:   16    7:   25    1:    7
           6       1:   10    1:    6    1:    8
           7       1:   16    7:   25    8:   20
           8      17:   25    7:   25   15:   20
Setting up quadratic distribution...
ExtMesh (bp) on 0 =    50 x    52 x    39 =      101400
PhiOnMesh: Number of (b)points on node 0 =                 2520
PhiOnMesh: nlist on node 0 =                 4824

        iscf     Eharris(eV)        E_KS(eV)     FreeEng(eV)     dDmax    Ef(eV) dHmax(eV)
   scf:    1     -465.757295     -465.778167     -465.778167  0.006513 -1.830069  0.037360
   scf:    2     -465.777992     -465.778132     -465.778132  0.001667 -1.809519  0.055252
   scf:    3     -465.778220     -465.778197     -465.778197  0.000963 -1.822309  0.002787
   scf:    4     -465.778198     -465.778198     -465.778198  0.000054 -1.822227  0.001618
   scf:    5     -465.778198     -465.778198     -465.778198  0.000099 -1.822023  0.000607

SCF Convergence by DM+H criterion
max |DM_out - DM_in|         :     0.0000991170
max |H_out - H_in|      (eV) :     0.0006065476
SCF cycle converged after 5 iterations

Using DM_out to compute the final energy and forces
No. of atoms with KB's overlaping orbs in proc 0. Max # of overlaps:       3      23

siesta: E_KS(eV) =             -465.7782

siesta: Atomic forces (eV/Ang):
     1   -0.486285   -0.995942   -0.133115
     2   -0.380202    0.374744   -0.269533
     3    0.822381    0.409938    0.199721
----------------------------------------
   Tot   -0.044105   -0.211260   -0.202928
----------------------------------------
   Max    0.995942
   Res    0.525777    sqrt( Sum f_i^2 / 3N )
----------------------------------------
   Max    0.995942    constrained

Stress tensor Voigt[x,y,z,yz,xz,xy] (kbar):        3.36       -1.91       -0.29        0.47        1.39        0.60
(Free)E + p*V (eV/cell)     -465.8770
Target enthalpy (eV/cell)     -465.7782

siesta: Stress tensor (static) (eV/Ang**3):
         0.002225    0.000284    0.000819
         0.000283   -0.001041    0.000399
         0.000817    0.000399   -0.000099

siesta: Pressure (static):         -0.58006407  kBar

siesta: Stress tensor (total) (eV/Ang**3):
         0.002099    0.000376    0.000867
         0.000375   -0.001192    0.000292
         0.000866    0.000292   -0.000183

siesta: Pressure (total):         -0.38644067  kBar
 Anneal: Kinetic Energy=    5.5964268631790480E-003
 Anneal: Velocity scale factor =   0.99899949949937417     
 Anneal: Cell scale factor =    1.0000005780118013     

siesta: Temp_ion =     293.960 K

                     ====================================
                        Begin MD step =     20
                     ====================================

outcoor: Atomic coordinates (Ang):                          
    0.01191407    0.01264983    0.01128966   1       1  O
    0.63364638    0.74706881    0.03603902   2       2  H
   -0.85207705    0.20736068   -0.40168880   2       3  H

outcell: Unit cell vectors (Ang):
        8.000129    0.000000    0.000000
        0.000000    7.999627    0.000000
        0.000000    0.000000    6.400804

outcell: Cell vector modules (Ang)   :    8.000129    7.999627    6.400804
outcell: Cell angles (23,13,12) (deg):     90.0000     90.0000     90.0000
outcell: Cell volume (Ang**3)        :    409.6390
<dSpData1D:S at geom step 20
  <sparsity:sparsity for geom step 20
    nrows_g=23 nrows=3 sparsity=.1304 nnzs=69, refcount: 7>
  <dData1D:(new from dSpData1D) n=69, refcount: 1>
refcount: 1>
new_DM -- step:    20
Re-using DM from previous geometries...
Number of DMs in history: 1
 DM extrapolation coefficients: 
1   1.00000
New DM after history re-use:
<dSpData2D:SpM extrapolated using coords
  <sparsity:sparsity for geom step 20
    nrows_g=23 nrows=3 sparsity=.1304 nnzs=69, refcount: 9>
  <dData2D:(temp array for extrapolation) n=69 m=1, refcount: 1>
refcount: 1>
No. of atoms with KB's overlaping orbs in proc 0. Max # of overlaps:       3      23
New grid distribution:   1
           1       1:   25    1:   13    1:    5
           2       1:   25    1:   13    6:   10
           3       1:   25    1:   13   11:   15
           4       1:   25    1:   13   16:   20
           5       1:   25   14:   25    1:    5
           6       1:   25   14:   25    6:   10
           7       1:   25   14:   25   11:   15
           8       1:   25   14:   25   16:   20

InitMesh: MESH =    50 x    50 x    40 =      100000
InitMesh: (bp) =    25 x    25 x    20 =       12500
InitMesh: Mesh cutoff (required, used) =   100.000   107.933 Ry
ExtMesh (bp) on 0 =    57 x    45 x    37 =       94905
New grid distribution:   2
           1       8:   25    6:   25    1:    7
           2       8:   25    1:    5    1:    6
           3       8:   25    1:    5    7:   20
           4       1:    7    1:    5    8:   20
           5       1:    7    6:   25    1:    7
           6       1:    7    1:    5    1:    7
           7       8:   25    6:   25    8:   20
           8       1:    7    6:   25    8:   20
New grid distribution:   3
           1      17:   25    7:   25    1:   14
           2      11:   25    1:    6    1:   13
           3       1:   10    1:    6    9:   20
           4      11:   25    1:    6   14:   20
           5       1:   16    7:   25    1:    7
           6       1:   10    1:    6    1:    8
           7       1:   16    7:   25    8:   20
           8      17:   25    7:   25   15:   20
Setting up quadratic distribution...
ExtMesh (bp) on 0 =    50 x    52 x    39 =      101400
PhiOnMesh: Number of (b)points on node 0 =                 2520
PhiOnMesh: nlist on node 0 =                 4810

        iscf     Eharris(eV)        E_KS(eV)     FreeEng(eV)     dDmax    Ef(eV) dHmax(eV)
   scf:    1     -465.757973     -465.779701     -465.779701  0.006659 -1.830045  0.037871
   scf:    2     -465.779525     -465.779667     -465.779667  0.001664 -1.809501  0.055421
   scf:    3     -465.779756     -465.779733     -465.779733  0.000958 -1.822266  0.002860
   scf:    4     -465.779734     -465.779733     -465.779733  0.000055 -1.822192  0.001691
   scf:    5     -465.779734     -465.779734     -465.779734  0.000099 -1.821996  0.000668

SCF Convergence by DM+H criterion
max |DM_out - DM_in|         :     0.0000990433
max |H_out - H_in|      (eV) :     0.0006679914
SCF cycle converged after 5 iterations

Using DM_out to compute the final energy and forces
No. of atoms with KB's overlaping orbs in proc 0. Max # of overlaps:       3      23

siesta: E_KS(eV) =             -465.7797

siesta: Atomic forces (eV/Ang):
     1   -0.460830   -1.088955   -0.090875
     2   -0.308493    0.447777   -0.266355
     3    0.722587    0.427972    0.157451
----------------------------------------
   Tot   -0.046736   -0.213205   -0.199779
----------------------------------------
   Max    1.088955
   Res    0.527378    sqrt( Sum f_i^2 / 3N )
----------------------------------------
   Max    1.088955    constrained

Stress tensor Voigt[x,y,z,yz,xz,xy] (kbar):        2.80       -2.11       -0.35        0.51        1.23        0.50
(Free)E + p*V (eV/cell)     -465.8087
Target enthalpy (eV/cell)     -465.7797

siesta: Stress tensor (static) (eV/Ang**3):
         0.001896    0.000211    0.000720
         0.000210   -0.001176    0.000417
         0.000719    0.000417   -0.000139

siesta: Pressure (static):         -0.30999160  kBar

siesta: Stress tensor (total) (eV/Ang**3):
         0.001751    0.000313    0.000772
         0.000312   -0.001318    0.000317
         0.000770    0.000317   -0.000221

siesta: Pressure (total):         -0.11327374  kBar
 Anneal: Kinetic Energy=    5.6861378269110543E-003
 Anneal: Velocity scale factor =   0.99899949949937417     
 Anneal: Cell scale factor =    1.0000007010597867     

siesta: Temp_ion =     298.672 K

siesta: Program's energy decomposition (eV):
siesta: Ebs     =      -102.844686
siesta: Eions   =       815.854478
siesta: Ena     =       175.101682
siesta: Ekin    =       353.212329
siesta: Enl     =       -63.162096
siesta: Eso     =         0.000000
siesta: Edftu   =         0.000000
siesta: DEna    =        -2.960403
siesta: DUscf   =         0.781416
siesta: DUext   =         0.000000
siesta: Exc     =      -112.898183
siesta: eta*DQ  =         0.000000
siesta: Emadel  =         0.000000
siesta: Emeta   =         0.000000
siesta: Emolmec =         0.000000
siesta: Ekinion =         0.077210
siesta: Eharris =      -465.702524
siesta: Etot    =      -465.702524
siesta: FreeEng =      -465.702524

siesta: Final energy (eV):
siesta:  Band Struct. =    -102.844686
siesta:       Kinetic =     353.212329
siesta:       Hartree =     415.266561
siesta:       Edftu   =       0.000000
siesta:       Eso     =       0.000000
siesta:    Ext. field =       0.000000
siesta:   Exch.-corr. =    -112.898183
siesta:  Ion-electron =   -1138.667460
siesta:       Ion-ion =      17.307020
siesta:       Ekinion =       0.077210
siesta:         Total =    -465.702524
siesta:         Fermi =      -1.821996

siesta: Atomic forces (eV/Ang):
siesta:      1   -0.460830   -1.088955   -0.090875
siesta:      2   -0.308493    0.447777   -0.266355
siesta:      3    0.722587    0.427972    0.157451
siesta: ----------------------------------------
siesta:    Tot   -0.046736   -0.213205   -0.199779

siesta: Stress tensor (static) (eV/Ang**3):
siesta:     0.001896    0.000211    0.000720
siesta:     0.000210   -0.001176    0.000417
siesta:     0.000719    0.000417   -0.000139

siesta: Cell volume =        409.638999 Ang**3

siesta: Pressure (static):
siesta:                Solid            Molecule  Units
siesta:          -0.00000211          0.00000178  Ry/Bohr**3
siesta:          -0.00019348          0.00016385  eV/Ang**3
siesta:          -0.30999160          0.26252603  kBar
(Free)E+ p_basis*V_orbitals  =        -465.194566
(Free)Eharris+ p_basis*V_orbitals  =        -465.194567

siesta: Electric dipole (a.u.)  =   -0.117180    0.442719   -0.187381
siesta: Electric dipole (Debye) =   -0.297843    1.125279   -0.476275

cite: Please see "h2o.bib" for an exhaustive BiBTeX file.
cite: Please clearly indicate Siesta version in published work: v4.1-b4-351
cite: This calculation has made use of the following articles
cite: which are encouraged to be cited in a published work.
        Primary SIESTA paper
          DOI: www.doi.org/10.1088/0953-8984/14/11/302

>> End of run:  22-JAN-2021  21:45:30
Job completed
