Siesta Version  : v4.1-b4-351
Architecture    : x86_64-linux-n-62-26-19
Compiler version: GNU Fortran (GCC) 9.3.0
Compiler flags  : mpifort -m64 -fPIC -O3 -march=native -ftree-vectorize -fexpensive-optimizatioons -funroll-loops -fprefetch-loop-arrays -fno-second-underscore  -flto
PP flags        : -I/dtu/sw/dcc/SL73/2020-aug/generic/build-tools/1.0/include -I/dtu/sw/dcc/SL773/2020-aug/generic/gcc/9.3.0/include -I/dtu/sw/dcc/SL73/2020-aug/generic/gcc/9.3.0/include -I/dtu/sw/dcc/SL73/2020-aug/XeonE5-2660v3/gnu/9.3.0/zlib/1.2.11/include -I/dtu/sw/dcc/SL73/2020-aug/generic/numactl/2.0.12/include -I/dtu/sw/dcc/SL73/2020-aug/XeonE5-2660v3/gnu/9.3.0/libxml2/2.9.10/include -I/dtu/sw/dcc/SL73/2020-aug/XeonE5-2660v3/gnu/9.3.0/hwloc/2.2.0/include -I/dtu/sw/dcc/SL73/2020-aug/XeonE5-2660v3/gnu/9.3.0/knem/1.1.4/include -I/dtu/sw/dcc/SL73/2020-aug/XeonE5-2660v3/gnu/9.3.0/ucx/1.8.1/include -I/dtu/sw/dcc/SL73/2020-aug/XeonE5-2660v3/gnu/9.3.0/openmpi/4.0.4/include -I/dtu/sw/dcc/SL73/2020-aug/XeonE5-2660v3/gnu/9.3.0/szip/2.1.1/include -I/dtu/sw/dcc/SL73/2020-aug/XeonE5-2660v3/gnu/9.3.0/hdf5/1.12.0/include -I/dtu/sw/dcc/SL73/2020-aug/XeonE5-2660v3/gnu/9.3.0/pnetcdf/1.12.1/include -I/dtu/sw/dcc/SL73/2020-aug/generic/gen-zlib/1.2.11/include -I/dtu/sw/dcc/SL73/2020-aug/generic/openssl/1.1.1/include -I/dtu/sw/dcc/SL73/2020-aug/generic/libssh2/1.8.2/include -I/dtu/sw/dcc/SL73/2020-aug/generic/curl/7.65.1/include -I/dtu/sw/dcc/SL73/2020-aug/XeonE5-2660v3/gnu/9.3.0/netcdf/4.7.4/include -I/dtu/sw/dcc/SL73/2020-aug/XeonE5-2660v3/gnu/9.3.0/flook/0.8.1/include -I/dtu/sw/dcc/SL73/2020-aug/XeonE5-2660v3/gnu/9.3.0/fftw/3.3.8/include -I/dtu/sw/dcc/SL73/2020-aug/XeonE5-2660v3/gnu/9.3.0/parmetis/4.0.3/include -I/dtu/sw/dcc/SL73/2020-aug/XeonE5-2660v3/gnu/9.3.0/scalapack/2.1.0/include -I/dtu/sw/dcc/SL73/2020-aug/XeonE5-2660v3/gnu/9.3.0/lapack/3.9.0/include -I/dtu/sw/dcc/SL73/2020-aug/XeonE5-2660v3/gnu/9.3.0/blis/0.7.0/include -I/dtu/sw/dcc/SL73/2020-aug/XeonE5-2660v3/gnu/9.3.0/scotch/6.0.9/include -I/dtu/sw/dcc/SL73/2020-aug/XeonE5-2660v3/gnu/9.3.0/mumps/5.3.3/include -I/dtu/sw/dcc/SL73/2020-aug/XeonE5-2660v3/gnu/9.3.0/elpa/2020.05.001/include -DSIESTA__ELPA -DMPI -DFC_HAVE_FLUSH -DFC_HAVE_ABORT -DCDF -DCDF4 -DSIESTA__FLOOK  -DNCDF -DNCDF_4 -DNCDF_PARALLEL -DTS_NOCHECKS -DSIESTA__METIS -DSIESTA__MUMPS -DSIESTA__MRRR -I/dtu/sw/dcc/SL73/2020-aug/XeonE5-2660v3/gnu/9.3.0/elpa/2020.05.001/include/elpa
Libraries       : libncdf.a libfdict.a -lnetcdff -lnetcdf -lpnetcdf -lhdf5_hl -lhdf5 -lz  -lzmuumps -lmumps_common -lesmumps -lscotch -lscotcherr -lpord -lparmetis -lmetis -lelpa -lscalapack -llapack -lblis  -L/dtu/sw/dcc/SL73/2020-aug/XeonE5-2660v3/gnu/9.3.0/flook/0.8.1/lib -Wl,-rpath=/dtu/sw/dcc/SL73/2020-aug/XeonE5-2660v3/gnu/9.3.0/flook/0.8.1/lib -lflookall -ldl  -flto -fuse-linker-plugin  -lmetis
PARALLEL version
NetCDF support
NetCDF-4 support
NetCDF-4 MPI-IO support
METIS ordering support
Lua support

* Running on 8 nodes in parallel
>> Start of run:  22-JAN-2021  21:47:17

                           ***********************       
                           *  WELCOME TO SIESTA  *       
                           ***********************       

reinit: Reading from ../benzene.fdf

reinit: -----------------------------------------------------------------------
reinit: System Name: benzene
reinit: -----------------------------------------------------------------------
reinit: System Label: benzene
reinit: -----------------------------------------------------------------------

initatom: Reading input for the pseudopotentials and atomic orbitals ----------
Species number:   1 Atomic number:    1 Label: H
Species number:   2 Atomic number:    6 Label: C

Ground state valence configuration:   1s01
Reading pseudopotential information in formatted form from H.psf

Valence configuration for pseudopotential generation:
1s( 1.00) rc: 1.25
2p( 0.00) rc: 1.25
3d( 0.00) rc: 1.25
4f( 0.00) rc: 1.25
Ground state valence configuration:   2s02  2p02
Reading pseudopotential information in formatted form from C.psf

Valence configuration for pseudopotential generation:
2s( 2.00) rc: 1.49
2p( 2.00) rc: 1.52
3d( 0.00) rc: 1.58
relmxkb: Read Max KB Ang. Momentum=    2 for species C
For H, standard SIESTA heuristics set lmxkb to 2
 (one more than the basis l, including polarization orbitals).
Use PS.lmax or PS.KBprojectors blocks to override.

<basis_specs>
===============================================================================
H                    Z=   1    Mass=  1.0100        Charge= 0.17977+309
Lmxo=0 Lmxkb= 2    BasisType=split      Semic=F
L=0  Nsemic=0  Cnfigmx=1
          i=1  nzeta=2  polorb=1  (1s)
            splnorm:   0.15000    
               vcte:    0.0000    
               rinn:    0.0000    
               qcoe:    0.0000    
               qyuk:    0.0000    
               qwid:   0.10000E-01
                rcs:    0.0000      0.0000    
            lambdas:    1.0000      1.0000    
-------------------------------------------------------------------------------
L=0  Nkbl=1  erefs: 0.17977+309
L=1  Nkbl=1  erefs: 0.17977+309
L=2  Nkbl=1  erefs: 0.17977+309
===============================================================================
</basis_specs>

atom: Called for H                     (Z =   1)

read_vps: Pseudopotential generation method:
read_vps: ATM3      Troullier-Martins                       
Valence charge for ps generation:    1.00000

xc_check: Exchange-correlation functional:
xc_check: Ceperley-Alder
V l=0 = -2*Zval/r beyond r=  1.2343
V l=1 = -2*Zval/r beyond r=  1.2189
V l=2 = -2*Zval/r beyond r=  1.2189
All V_l potentials equal beyond r=  1.2343
This should be close to max(r_c) in ps generation
All pots = -2*Zval/r beyond r=  1.2343

VLOCAL1: 99.0% of the norm of Vloc inside     28.493 Ry
VLOCAL1: 99.9% of the norm of Vloc inside     64.935 Ry
atom: Maximum radius for 4*pi*r*r*local-pseudopot. charge    1.45251
atom: Maximum radius for r*vlocal+2*Zval:    1.21892
GHOST: No ghost state for L =  0
GHOST: No ghost state for L =  1
GHOST: No ghost state for L =  2

KBgen: Kleinman-Bylander projectors: 
   l= 0   rc=  1.364359   el= -0.467325   Ekb= -2.005361   kbcos= -0.336422
   l= 1   rc=  1.434438   el=  0.001430   Ekb= -0.501708   kbcos= -0.021697
   l= 2   rc=  1.470814   el=  0.002365   Ekb= -0.190555   kbcos= -0.002281

KBgen: Total number of  Kleinman-Bylander projectors:    9
atom: -------------------------------------------------------------------------

atom: SANKEY-TYPE ORBITALS:
atom: Selected multiple-zeta basis: split     

SPLIT: Orbitals with angular momentum L= 0

SPLIT: Basis orbitals for state 1s

SPLIT: PAO cut-off radius determined from an
SPLIT: energy shift=  0.010000 Ry

   izeta = 1
                 lambda =    1.000000
                     rc =    5.336316
                 energy =   -0.457946
                kinetic =    0.886710
    potential(screened) =   -1.344656
       potential(ionic) =   -1.876618

   izeta = 2
                 rmatch =    4.002347
              splitnorm =    0.150000
                 energy =   -0.355904
                kinetic =    1.439488
    potential(screened) =   -1.795392
       potential(ionic) =   -2.364690

POLgen: Perturbative polarization orbital with L=  1

POLgen: Polarization orbital for state 1s

   izeta = 1
                     rc =    5.336316
                 energy =    0.616245
                kinetic =    1.262150
    potential(screened) =   -0.645906
       potential(ionic) =   -1.116519
atom: Total number of Sankey-type orbitals:  5

atm_pop: Valence configuration (for local Pseudopot. screening):
 1s( 1.00)                                                            
Vna: chval, zval:    1.00000   1.00000

Vna:  Cut-off radius for the neutral-atom potential:   5.336316

atom: _________________________________________________________________________

<basis_specs>
===============================================================================
C                    Z=   6    Mass=  12.010        Charge= 0.17977+309
Lmxo=1 Lmxkb= 2    BasisType=split      Semic=F
L=0  Nsemic=0  Cnfigmx=2
          i=1  nzeta=2  polorb=0  (2s)
            splnorm:   0.15000    
               vcte:    0.0000    
               rinn:    0.0000    
               qcoe:    0.0000    
               qyuk:    0.0000    
               qwid:   0.10000E-01
                rcs:    0.0000      0.0000    
            lambdas:    1.0000      1.0000    
L=1  Nsemic=0  Cnfigmx=2
          i=1  nzeta=2  polorb=1  (2p)
            splnorm:   0.15000    
               vcte:    0.0000    
               rinn:    0.0000    
               qcoe:    0.0000    
               qyuk:    0.0000    
               qwid:   0.10000E-01
                rcs:    0.0000      0.0000    
            lambdas:    1.0000      1.0000    
-------------------------------------------------------------------------------
L=0  Nkbl=1  erefs: 0.17977+309
L=1  Nkbl=1  erefs: 0.17977+309
L=2  Nkbl=1  erefs: 0.17977+309
===============================================================================
</basis_specs>

atom: Called for C                     (Z =   6)

read_vps: Pseudopotential generation method:
read_vps: ATM3      Troullier-Martins                       
Valence charge for ps generation:    4.00000

xc_check: Exchange-correlation functional:
xc_check: Ceperley-Alder
V l=0 = -2*Zval/r beyond r=  1.4666
V l=1 = -2*Zval/r beyond r=  1.5038
V l=2 = -2*Zval/r beyond r=  1.5612
All V_l potentials equal beyond r=  1.5612
This should be close to max(r_c) in ps generation
All pots = -2*Zval/r beyond r=  1.5612

VLOCAL1: 99.0% of the norm of Vloc inside     17.809 Ry
VLOCAL1: 99.9% of the norm of Vloc inside     40.586 Ry
atom: Maximum radius for 4*pi*r*r*local-pseudopot. charge    1.88329
atom: Maximum radius for r*vlocal+2*Zval:    1.62091
GHOST: No ghost state for L =  0
GHOST: No ghost state for L =  1
GHOST: No ghost state for L =  2

KBgen: Kleinman-Bylander projectors: 
   l= 0   rc=  1.747182   el= -1.001947   Ekb=  5.181700   kbcos=  0.300603
   l= 1   rc=  1.747182   el= -0.398598   Ekb= -4.328763   kbcos= -0.367074
   l= 2   rc=  1.955272   el=  0.002326   Ekb= -1.016175   kbcos= -0.009979

KBgen: Total number of  Kleinman-Bylander projectors:    9
atom: -------------------------------------------------------------------------

atom: SANKEY-TYPE ORBITALS:
atom: Selected multiple-zeta basis: split     

SPLIT: Orbitals with angular momentum L= 0

SPLIT: Basis orbitals for state 2s

SPLIT: PAO cut-off radius determined from an
SPLIT: energy shift=  0.010000 Ry

   izeta = 1
                 lambda =    1.000000
                     rc =    4.518360
                 energy =   -0.992087
                kinetic =    0.856755
    potential(screened) =   -1.848843
       potential(ionic) =   -5.436865

   izeta = 2
                 rmatch =    3.475094
              splitnorm =    0.150000
                 energy =   -0.853594
                kinetic =    1.308346
    potential(screened) =   -2.161940
       potential(ionic) =   -6.002045

SPLIT: Orbitals with angular momentum L= 1

SPLIT: Basis orbitals for state 2p

SPLIT: PAO cut-off radius determined from an
SPLIT: energy shift=  0.010000 Ry

   izeta = 1
                 lambda =    1.000000
                     rc =    5.382558
                 energy =   -0.388318
                kinetic =    2.456485
    potential(screened) =   -2.844804
       potential(ionic) =   -6.312273

   izeta = 2
                 rmatch =    3.607901
              splitnorm =    0.150000
                 energy =   -0.250655
                kinetic =    3.636791
    potential(screened) =   -3.887446
       potential(ionic) =   -7.736789

POLgen: Perturbative polarization orbital with L=  2

POLgen: Polarization orbital for state 2p

   izeta = 1
                     rc =    5.382558
                 energy =    1.148490
                kinetic =    2.389078
    potential(screened) =   -1.240587
       potential(ionic) =   -4.090578
atom: Total number of Sankey-type orbitals: 13

atm_pop: Valence configuration (for local Pseudopot. screening):
 2s( 2.00)                                                            
 2p( 2.00)                                                            
Vna: chval, zval:    4.00000   4.00000

Vna:  Cut-off radius for the neutral-atom potential:   5.382558

atom: _________________________________________________________________________

prinput: Basis input ----------------------------------------------------------

PAO.BasisType split     

%block ChemicalSpeciesLabel
    1    1 H                       # Species index, atomic number, species label
    2    6 C                       # Species index, atomic number, species label
%endblock ChemicalSpeciesLabel

%block PAO.Basis                 # Define Basis set
H                     1                    # Species label, number of l-shells
 n=1   0   2 P   1                   # n, l, Nzeta, Polarization, NzetaPol
   5.336      4.002   
   1.000      1.000   
C                     2                    # Species label, number of l-shells
 n=2   0   2                         # n, l, Nzeta 
   4.518      3.475   
   1.000      1.000   
 n=2   1   2 P   1                   # n, l, Nzeta, Polarization, NzetaPol
   5.383      3.608   
   1.000      1.000   
%endblock PAO.Basis

prinput: ----------------------------------------------------------------------

Dumping basis to NetCDF file H.ion.nc
Dumping basis to NetCDF file C.ion.nc
coor:   Atomic-coordinates input format  =     Cartesian coordinates
coor:                                          (in Angstroms)
read_Zmatrix: Length units: Ang       
read_Zmatrix: Angle  units: deg       
read_Zmatrix: Force tolerances:
read_Zmatrix:    for lengths =     0.001556 Ry/Bohr
read_Zmatrix:    for angles  =     0.000421 Ry/rad

read_Zmatrix: Maximum displacements:
read_Zmatrix:    for lengths =     0.188973 Bohr
read_Zmatrix:    for angles  =     0.349066 rad
%block Zmatrix
molecule
      2 0 0 0 xm1 ym1 zm1 0 0 0
      2 1 0 0 CC 90.0 60.0 0 0 0
      2 2 1 0 CC CCC 90.0 0 0 0
      2 3 2 1 CC CCC 0.0 0 0 0
      2 4 3 2 CC CCC 0.0 0 0 0
      2 5 4 3 CC CCC 0.0 0 0 0
      1 1 2 3 CH CCH 180.0 0 0 0
      1 2 1 7 CH CCH 0.0 0 0 0
      1 3 2 8 CH CCH 0.0 0 0 0
      1 4 3 9 CH CCH 0.0 0 0 0
      1 5 4 10 CH CCH 0.0 0 0 0
      1 6 5 11 CH CCH 0.0 0 0 0
constants
        ym1 3.68
variables
        zm1 6.9032294
        CC 1.417
        CH 1.112
        CCH 120.0
        CCC 120.0
constraints
        xm1 CC -1.0 3.903229
%endblock Zmatrix
 nZmol:            1
 nSpecies:            2           2           2           2           2           2           1           1           1           1           1           1

zmatrix: Z-matrix coordinates: (Ang ; deg )
zmatrix: (Fractional coordinates have been converted to cartesian)
molecule    1 (    12 atoms)
      2.48622900      3.68000000      6.90322940
      1.41700000     90.00000000     60.00000000
      1.41700000    120.00000000     90.00000000
      1.41700000    120.00000000      0.00000000
      1.41700000    120.00000000      0.00000000
      1.41700000    120.00000000      0.00000000
      1.11200000    120.00000000    180.00000000
      1.11200000    120.00000000      0.00000000
      1.11200000    120.00000000      0.00000000
      1.11200000    120.00000000      0.00000000
      1.11200000    120.00000000      0.00000000
      1.11200000    120.00000000      0.00000000


Z-matrix Symbol Section -------
Variables
 xm1          2.4862289999999998     
 zm1          6.9032293999999998     
 CCC          120.00000000000017     
 CH           1.1120000000000001     
 CCH          120.00000000000017     
Constants
 ym1          3.6800000000000002     
 CC           1.4170000000000000     
------------ End of Z-matrix Information


siesta: Atomic coordinates (Bohr) and species
siesta:      4.69829   6.95419  13.04522  2        1
siesta:      6.03717   9.27319  13.04522  2        2
siesta:      8.71491   9.27319  13.04522  2        3
siesta:     10.05378   6.95419  13.04522  2        4
siesta:      8.71491   4.63520  13.04522  2        5
siesta:      6.03717   4.63520  13.04522  2        6
siesta:      2.59692   6.95419  13.04522  1        7
siesta:      4.98648  11.09303  13.04522  1        8
siesta:      9.76560  11.09303  13.04522  1        9
siesta:     12.15516   6.95419  13.04522  1       10
siesta:      9.76560   2.81536  13.04522  1       11
siesta:      4.98648   2.81536  13.04522  1       12

siesta: Automatic unit cell vectors (Ang):
siesta:   11.776283    0.000000    0.000000
siesta:    0.000000   11.030875    0.000000
siesta:    0.000000    0.000000    6.266317

siesta: System type = molecule  

initatomlists: Number of atoms, orbitals, and projectors:     12   108   108

siesta: ******************** Simulation parameters ****************************
siesta:
siesta: The following are some of the parameters of the simulation.
siesta: A complete list of the parameters used, including default values,
siesta: can be found in file out.fdf
siesta:
redata: Spin configuration                          = none
redata: Number of spin components                   = 1
redata: Time-Reversal Symmetry                      = T
redata: Spin spiral                                 = F
redata: Long output                                 =   F
redata: Number of Atomic Species                    =        2
redata: Charge density info will appear in .RHO file
redata: Write Mulliken Pop.                         = NO
redata: Matel table size (NRTAB)                    =     1024
redata: Mesh Cutoff                                 =   120.0000 Ry
redata: Net charge of the system                    =     0.0000 |e|
redata: Min. number of SCF Iter                     =        0
redata: Max. number of SCF Iter                     =     1000
redata: SCF convergence failure will abort job
redata: SCF mix quantity                            = Hamiltonian
redata: Mix DM or H after convergence               =   F
redata: Recompute H after scf cycle                 =   F
redata: Mix DM in first SCF step                    =   T
redata: Write Pulay info on disk                    =   F
redata: New DM Occupancy tolerance                  = 0.000000000001
redata: No kicks to SCF
redata: DM Mixing Weight for Kicks                  =     0.5000
redata: Require Harris convergence for SCF          =   F
redata: Harris energy tolerance for SCF             =     0.000100 eV
redata: Require DM convergence for SCF              =   T
redata: DM tolerance for SCF                        =     0.000100
redata: Require EDM convergence for SCF             =   F
redata: EDM tolerance for SCF                       =     0.001000 eV
redata: Require H convergence for SCF               =   T
redata: Hamiltonian tolerance for SCF               =     0.001000 eV
redata: Require (free) Energy convergence for SCF   =   F
redata: (free) Energy tolerance for SCF             =     0.000100 eV
redata: Using Saved Data (generic)                  =   F
redata: Use continuation files for DM               =   F
redata: Neglect nonoverlap interactions             =   F
redata: Method of Calculation                       = Diagonalization
redata: Electronic Temperature                      =   299.9869 K
redata: Fix the spin of the system                  =   F
redata: Dynamics option                             = CG coord. optimization
redata: Variable cell                               =   F
redata: Use continuation files for CG               =   F
redata: Max atomic displ per move                   =     0.1058 Ang
redata: Maximum number of optimization moves        =        4
redata: Force tolerance                             =     0.0400 eV/Ang
mix.SCF: Pulay mixing                            = Pulay
mix.SCF:    Variant                              = stable
mix.SCF:    History steps                        = 5
mix.SCF:    Linear mixing weight                 =     0.300000
mix.SCF:    Mixing weight                        =     0.300000
mix.SCF:    SVD condition                        = 0.1000E-07
redata: Save all siesta data in one NC              =   F
redata: ***********************************************************************

%block SCF.Mixers
  Pulay
%endblock SCF.Mixers

%block SCF.Mixer.Pulay
  # Mixing method
  method pulay
  variant stable

  # Mixing options
  weight 0.3000
  weight.linear 0.3000
  history 5
%endblock SCF.Mixer.Pulay

DM_history_depth set to one: no extrapolation allowed by default for geometry relaxation
Size of DM history Fstack: 1
Total number of electrons:    30.000000
Total ionic charge:    30.000000

* ProcessorY, Blocksize:    2  14


* Orbital distribution balance (max,min):    14    10

 Kpoints in:            1 . Kpoints trimmed:            1

siesta: k-grid: Number of k-points =     1
siesta: k-grid: Cutoff (effective) =     3.133 Ang
siesta: k-grid: Supercell and displacements
siesta: k-grid:    1   0   0      0.000
siesta: k-grid:    0   1   0      0.000
siesta: k-grid:    0   0   1      0.000

diag: Algorithm                                     = D&C
diag: Parallel over k                               =   F
diag: Use parallel 2D distribution                  =   T
diag: Parallel block-size                           = 14
diag: Parallel distribution                         =     2 x     4
diag: Used triangular part                          = Lower
diag: Absolute tolerance                            =  0.100E-15
diag: Orthogonalization factor                      =  0.100E-05
diag: Memory factor                                 =  1.0000


ts: **************************************************************
ts: Save H and S matrices                           =    F
ts: Save DM and EDM matrices                        =    F
ts: Only save the overlap matrix S                  =    F
ts: **************************************************************

************************ Begin: TS CHECKS AND WARNINGS ************************
************************ End: TS CHECKS AND WARNINGS **************************


                     ====================================
                        Begin CG opt. move =      0

zmatrix: Z-matrix coordinates: (Ang ; deg )
zmatrix: (Fractional coordinates have been converted to cartesian)
molecule    1 (    12 atoms)
      2.48622900      3.68000000      6.90322940
      1.41700000     90.00000000     60.00000000
      1.41700000    120.00000000     90.00000000
      1.41700000    120.00000000      0.00000000
      1.41700000    120.00000000      0.00000000
      1.41700000    120.00000000      0.00000000
      1.11200000    120.00000000    180.00000000
      1.11200000    120.00000000      0.00000000
      1.11200000    120.00000000      0.00000000
      1.11200000    120.00000000      0.00000000
      1.11200000    120.00000000      0.00000000
      1.11200000    120.00000000      0.00000000


Z-matrix Symbol Section -------
Variables
 xm1          2.4862289999999998     
 zm1          6.9032293999999998     
 CCC          120.00000000000017     
 CH           1.1120000000000001     
 CCH          120.00000000000017     
Constants
 ym1          3.6800000000000002     
 CC           1.4170000000000000     
------------ End of Z-matrix Information

                     ====================================

outcell: Unit cell vectors (Ang):
       11.776283    0.000000    0.000000
        0.000000   11.030875    0.000000
        0.000000    0.000000    6.266317

outcell: Cell vector modules (Ang)   :   11.776283   11.030875    6.266317
outcell: Cell angles (23,13,12) (deg):     90.0000     90.0000     90.0000
outcell: Cell volume (Ang**3)        :    814.0116
<dSpData1D:S at geom step 0
  <sparsity:sparsity for geom step 0
    nrows_g=108 nrows=14 sparsity=.1296 nnzs=1512, refcount: 7>
  <dData1D:(new from dSpData1D) n=1512, refcount: 1>
refcount: 1>
new_DM -- step:     1
Initializing Density Matrix...
DM filled with atomic data:
<dSpData2D:DM initialized from atoms
  <sparsity:sparsity for geom step 0
    nrows_g=108 nrows=14 sparsity=.1296 nnzs=1512, refcount: 8>
  <dData2D:DM n=1512 m=1, refcount: 1>
refcount: 1>
No. of atoms with KB's overlaping orbs in proc 0. Max # of overlaps:      11     101
New grid distribution:   1
           1       1:   40    1:   20    1:    6
           2       1:   40    1:   20    7:   12
           3       1:   40    1:   20   13:   18
           4       1:   40    1:   20   19:   24
           5       1:   40   21:   40    1:    6
           6       1:   40   21:   40    7:   12
           7       1:   40   21:   40   13:   18
           8       1:   40   21:   40   19:   24

InitMesh: MESH =    80 x    80 x    48 =      307200
InitMesh: (bp) =    40 x    40 x    24 =       38400
InitMesh: Mesh cutoff (required, used) =   120.000   127.546 Ry
ExtMesh (bp) on 0 =    80 x    64 x    50 =      256000
New grid distribution:   2
           1       1:   14   15:   40    1:    6
           2       1:   14   15:   40    7:   24
           3      15:   40    1:   14    7:   24
           4       1:   14    1:   14    7:   24
           5      15:   40   15:   40    1:    6
           6      15:   40   15:   40    7:   24
           7      15:   40    1:   14    1:    6
           8       1:   14    1:   14    1:    6
New grid distribution:   3
           1      15:   40   16:   40    1:    8
           2      16:   40    1:   15    1:    9
           3      16:   40    1:   15   10:   24
           4       1:   15    1:   15    1:   10
           5       1:   15    1:   15   11:   24
           6       1:   14   16:   40    1:    9
           7      15:   40   16:   40    9:   24
           8       1:   14   16:   40   10:   24
Setting up quadratic distribution...
ExtMesh (bp) on 0 =    54 x    70 x    50 =      189000
PhiOnMesh: Number of (b)points on node 0 =                 2184
PhiOnMesh: nlist on node 0 =                45735

stepf: Fermi-Dirac step function

siesta: Program's energy decomposition (eV):
siesta: Ebs     =      -283.756039
siesta: Eions   =      1613.953835
siesta: Ena     =       340.735980
siesta: Ekin    =       771.608052
siesta: Enl     =      -127.548939
siesta: Eso     =         0.000000
siesta: Edftu   =         0.000000
siesta: DEna    =       -59.244222
siesta: DUscf   =         7.993392
siesta: DUext   =         0.000000
siesta: Exc     =      -341.223486
siesta: eta*DQ  =         0.000000
siesta: Emadel  =         0.000000
siesta: Emeta   =         0.000000
siesta: Emolmec =         0.000000
siesta: Ekinion =         0.000000
siesta: Eharris =     -1027.961967
siesta: Etot    =     -1021.633059
siesta: FreeEng =     -1021.633059

        iscf     Eharris(eV)        E_KS(eV)     FreeEng(eV)     dDmax    Ef(eV) dHmax(eV)
   scf:    1    -1027.961967    -1021.633059    -1021.633059  1.955413 -7.720092  6.828620
timer: Routine,Calls,Time,% = IterSCF        1       0.114   7.77
   scf:    2    -1024.813313    -1023.460447    -1023.460447  0.092869 -5.867700  2.815933
   scf:    3    -1023.979456    -1023.802977    -1023.802977  0.070391 -4.658400  0.588248
   scf:    4    -1023.845871    -1023.829701    -1023.829701  0.017417 -4.544948  0.127396
   scf:    5    -1023.826468    -1023.829198    -1023.829198  0.006754 -4.390595  0.165473
   scf:    6    -1023.831380    -1023.830911    -1023.830911  0.003284 -4.470777  0.022340
   scf:    7    -1023.830940    -1023.830942    -1023.830942  0.000588 -4.456679  0.007874
   scf:    8    -1023.830943    -1023.830941    -1023.830941  0.000167 -4.460230  0.000155
   scf:    9    -1023.830941    -1023.830941    -1023.830941  0.000004 -4.460255  0.000105

SCF Convergence by DM+H criterion
max |DM_out - DM_in|         :     0.0000040882
max |H_out - H_in|      (eV) :     0.0001052961
SCF cycle converged after 9 iterations

Using DM_out to compute the final energy and forces
No. of atoms with KB's overlaping orbs in proc 0. Max # of overlaps:      11     101

siesta: E_KS(eV) =            -1023.8309

siesta: E_KS - E_eggbox =     -1023.8309

zmatrix: Atomic forces (eV/Ang ; eV/deg )
zmatrix: (No information if symbols are used)
molecule    1 (    12 atoms)
     1    0.000000    0.000000    0.000000
     2    0.000000    0.000000    0.000000
     3    0.000000    0.000000    0.000000
     4    0.000000    0.000000    0.000000
     5    0.000000    0.000000    0.000000
     6    0.000000    0.000000    0.000000
     7    0.000000    0.000000    0.000000
     8    0.000000    0.000000    0.000000
     9    0.000000    0.000000    0.000000
    10    0.000000    0.000000    0.000000
    11    0.000000    0.000000    0.000000
    12    0.000000    0.000000    0.000000


Variable forces (eV/Ang ; eV/deg )
 xm1          5.4368511581218728     
 zm1          3.1232005440768478E-003
 CCC        -0.11662143746690858     
 CH         -0.84284001946101883     
 CCH          5.9032576569681979E-005

siesta: Atomic forces (eV/Ang):
----------------------------------------
   Tot   -0.000718   -0.010425    0.003123
----------------------------------------
   Max    0.766889
   Res    0.317806    sqrt( Sum f_i^2 / 3N )
----------------------------------------
   Max    0.766889    constrained

Stress tensor Voigt[x,y,z,yz,xz,xy] (kbar):        8.52        8.48       -0.06        0.00        0.00        0.00
(Free)E + p*V (eV/cell)    -1026.7005
Target enthalpy (eV/cell)    -1023.8309

                     ====================================
                        Begin CG opt. move =      1

zmatrix: Z-matrix coordinates: (Ang ; deg )
zmatrix: (Fractional coordinates have been converted to cartesian)
molecule    1 (    12 atoms)
      2.56576353      3.68000000      6.90327509
      1.33746547     90.00000000     60.00000000
      1.33746547    100.00000000     90.00000000
      1.33746547    100.00000000      0.00000000
      1.33746547    100.00000000      0.00000000
      1.33746547    100.00000000      0.00000000
      1.09967027    120.01012380    180.00000000
      1.09967027    120.01012380      0.00000000
      1.09967027    120.01012380      0.00000000
      1.09967027    120.01012380      0.00000000
      1.09967027    120.01012380      0.00000000
      1.09967027    120.01012380      0.00000000


Z-matrix Symbol Section -------
Variables
 xm1          2.5657635272886332     
 zm1          6.9032750886296261     
 CCC          99.999999995433569     
 CH           1.0996702744698770     
 CCH          120.01012379505283     
Constants
 ym1          3.6800000000000002     
 CC           1.3374654727113668     
------------ End of Z-matrix Information

                     ====================================

outcell: Unit cell vectors (Ang):
       11.776283    0.000000    0.000000
        0.000000   11.030875    0.000000
        0.000000    0.000000    6.266317

outcell: Cell vector modules (Ang)   :   11.776283   11.030875    6.266317
outcell: Cell angles (23,13,12) (deg):     90.0000     90.0000     90.0000
outcell: Cell volume (Ang**3)        :    814.0116
<dSpData1D:S at geom step 1
  <sparsity:sparsity for geom step 1
    nrows_g=108 nrows=14 sparsity=.1296 nnzs=1512, refcount: 7>
  <dData1D:(new from dSpData1D) n=1512, refcount: 1>
refcount: 1>
new_DM -- step:     2
Re-using DM from previous geometries...
Number of DMs in history: 1
 DM extrapolation coefficients: 
1   1.00000
New DM after history re-use:
<dSpData2D:SpM extrapolated using coords
  <sparsity:sparsity for geom step 1
    nrows_g=108 nrows=14 sparsity=.1296 nnzs=1512, refcount: 9>
  <dData2D:(temp array for extrapolation) n=1512 m=1, refcount: 1>
refcount: 1>
Note: For starting DM, Qtot, Tr[D*S] =         30.00000000         25.42949045
No. of atoms with KB's overlaping orbs in proc 0. Max # of overlaps:      12     108
New grid distribution:   1
           1       1:   40    1:   20    1:    6
           2       1:   40    1:   20    7:   12
           3       1:   40    1:   20   13:   18
           4       1:   40    1:   20   19:   24
           5       1:   40   21:   40    1:    6
           6       1:   40   21:   40    7:   12
           7       1:   40   21:   40   13:   18
           8       1:   40   21:   40   19:   24

InitMesh: MESH =    80 x    80 x    48 =      307200
InitMesh: (bp) =    40 x    40 x    24 =       38400
InitMesh: Mesh cutoff (required, used) =   120.000   127.546 Ry
ExtMesh (bp) on 0 =    80 x    64 x    50 =      256000
New grid distribution:   2
           1       1:   11   15:   40    1:    7
           2      12:   40    1:   14    7:   24
           3       1:   11   15:   40    8:   24
           4       1:   11    1:   14    8:   24
           5      12:   40   15:   40    1:    7
           6      12:   40    1:   14    1:    6
           7      12:   40   15:   40    8:   24
           8       1:   11    1:   14    1:    7
New grid distribution:   3
           1      14:   40    1:   15    1:    9
           2       1:   13    1:   15   11:   24
           3      14:   40    1:   15   10:   24
           4       1:   13   16:   40   10:   24
           5      14:   40   16:   40    1:    8
           6       1:   13   16:   40    1:    9
           7      14:   40   16:   40    9:   24
           8       1:   13    1:   15    1:   10
Setting up quadratic distribution...
ExtMesh (bp) on 0 =    51 x    70 x    51 =      182070
PhiOnMesh: Number of (b)points on node 0 =                 2002
PhiOnMesh: nlist on node 0 =                50050

        iscf     Eharris(eV)        E_KS(eV)     FreeEng(eV)     dDmax    Ef(eV) dHmax(eV)
   scf:    1     -536.018320     -777.815986     -777.815990  5.130930 -6.320276 55.092485
   scf:    2     2097.427857       70.530530       70.530267  8.714001  1.989756149.574121
   scf:    3     -926.068187     -863.044471     -863.044471  8.607928 -4.673966 16.195606
   scf:    4     -873.924085     -871.166502     -871.168084  0.784204 -3.498129  3.224091
   scf:    5     -870.522308     -871.317367     -871.318062  0.681533 -3.385993  2.636027
   scf:    6     -871.377097     -871.671682     -871.687345  0.581720 -3.111708  1.429139
   scf:    7     -871.876958     -871.859510     -871.880392  0.258225 -3.014528  0.640916
   scf:    8     -871.821971     -871.851246     -871.894788  0.143026 -2.951356  0.295720
   scf:    9     -871.870680     -871.863825     -871.899090  0.053685 -2.936731  0.157488
   scf:   10     -871.856630     -871.863555     -871.899770  0.062909 -2.926280  0.087552
   scf:   11     -871.861583     -871.866277     -871.899418  0.063995 -2.922624  0.122582
   scf:   12     -871.867161     -871.867767     -871.901746  0.035884 -2.918543  0.015780
   scf:   13     -871.867234     -871.867505     -871.901754  0.002100 -2.921667  0.007926
   scf:   14     -871.867612     -871.867560     -871.901761  0.001392 -2.923623  0.001941
   scf:   15     -871.867526     -871.867543     -871.901761  0.000231 -2.924158  0.001299
   scf:   16     -871.867563     -871.867553     -871.901761  0.000372 -2.924342  0.000537
   scf:   17     -871.867547     -871.867550     -871.901761  0.000082 -2.924375  0.000261

SCF Convergence by DM+H criterion
max |DM_out - DM_in|         :     0.0000820848
max |H_out - H_in|      (eV) :     0.0002607110
SCF cycle converged after 17 iterations

Using DM_out to compute the final energy and forces
No. of atoms with KB's overlaping orbs in proc 0. Max # of overlaps:      12     108

siesta: E_KS(eV) =             -871.8676

zmatrix: Atomic forces (eV/Ang ; eV/deg )
zmatrix: (No information if symbols are used)
molecule    1 (    12 atoms)
     1    0.000000    0.000000    0.000000
     2    0.000000    0.000000    0.000000
     3    0.000000    0.000000    0.000000
     4    0.000000    0.000000    0.000000
     5    0.000000    0.000000    0.000000
     6    0.000000    0.000000    0.000000
     7    0.000000    0.000000    0.000000
     8    0.000000    0.000000    0.000000
     9    0.000000    0.000000    0.000000
    10    0.000000    0.000000    0.000000
    11    0.000000    0.000000    0.000000
    12    0.000000    0.000000    0.000000


Variable forces (eV/Ang ; eV/deg )
 xm1         -435.88646809506656     
 zm1          7.2521688846276973E-003
 CCC          19.668869465745477     
 CH           32.318293590129507     
 CCH          3.6780455562679809E-002

siesta: Atomic forces (eV/Ang):
----------------------------------------
   Tot   -0.008726    0.048874    0.007252
----------------------------------------
   Max  230.270404
   Res   70.801375    sqrt( Sum f_i^2 / 3N )
----------------------------------------
   Max  230.270404    constrained

Stress tensor Voigt[x,y,z,yz,xz,xy] (kbar):     -386.89     -830.44       -0.04       -0.00       -0.00      -73.53
(Free)E + p*V (eV/cell)     -665.7346
Target enthalpy (eV/cell)     -871.9018

                     ====================================
                        Begin CG opt. move =      2

zmatrix: Z-matrix coordinates: (Ang ; deg )
zmatrix: (Fractional coordinates have been converted to cartesian)
molecule    1 (    12 atoms)
      2.48674087      3.68000000      6.90322969
      1.41648813     90.00000000     60.00000000
      1.41648813    119.87128394     90.00000000
      1.41648813    119.87128394      0.00000000
      1.41648813    119.87128394      0.00000000
      1.41648813    119.87128394      0.00000000
      1.11192065    120.00006515    180.00000000
      1.11192065    120.00006515      0.00000000
      1.11192065    120.00006515      0.00000000
      1.11192065    120.00006515      0.00000000
      1.11192065    120.00006515      0.00000000
      1.11192065    120.00006515      0.00000000


Z-matrix Symbol Section -------
Variables
 xm1          2.4867408685314478     
 zm1          6.9032296940430085     
 CCC          119.87128394446684     
 CH           1.1119206483182160     
 CCH          120.00006515474846     
Constants
 ym1          3.6800000000000002     
 CC           1.4164881314685522     
------------ End of Z-matrix Information

                     ====================================

outcell: Unit cell vectors (Ang):
       11.776283    0.000000    0.000000
        0.000000   11.030875    0.000000
        0.000000    0.000000    6.266317

outcell: Cell vector modules (Ang)   :   11.776283   11.030875    6.266317
outcell: Cell angles (23,13,12) (deg):     90.0000     90.0000     90.0000
outcell: Cell volume (Ang**3)        :    814.0116
<dSpData1D:S at geom step 2
  <sparsity:sparsity for geom step 2
    nrows_g=108 nrows=14 sparsity=.1296 nnzs=1512, refcount: 7>
  <dData1D:(new from dSpData1D) n=1512, refcount: 1>
refcount: 1>
new_DM -- step:     3
Re-using DM from previous geometries...
Number of DMs in history: 1
 DM extrapolation coefficients: 
1   1.00000
New DM after history re-use:
<dSpData2D:SpM extrapolated using coords
  <sparsity:sparsity for geom step 2
    nrows_g=108 nrows=14 sparsity=.1296 nnzs=1512, refcount: 9>
  <dData2D:(temp array for extrapolation) n=1512 m=1, refcount: 1>
refcount: 1>
Note: For starting DM, Qtot, Tr[D*S] =         30.00000000         31.64260041
No. of atoms with KB's overlaping orbs in proc 0. Max # of overlaps:      11     101
New grid distribution:   1
           1       1:   40    1:   20    1:    6
           2       1:   40    1:   20    7:   12
           3       1:   40    1:   20   13:   18
           4       1:   40    1:   20   19:   24
           5       1:   40   21:   40    1:    6
           6       1:   40   21:   40    7:   12
           7       1:   40   21:   40   13:   18
           8       1:   40   21:   40   19:   24

InitMesh: MESH =    80 x    80 x    48 =      307200
InitMesh: (bp) =    40 x    40 x    24 =       38400
InitMesh: Mesh cutoff (required, used) =   120.000   127.546 Ry
ExtMesh (bp) on 0 =    80 x    64 x    50 =      256000
New grid distribution:   2
           1       1:   14   15:   40    1:    6
           2       1:   14   15:   40    7:   24
           3      15:   40    1:   14    7:   24
           4       1:   14    1:   14    7:   24
           5      15:   40   15:   40    1:    6
           6      15:   40   15:   40    7:   24
           7      15:   40    1:   14    1:    6
           8       1:   14    1:   14    1:    6
New grid distribution:   3
           1      15:   40   16:   40    1:    8
           2      16:   40    1:   15    1:    9
           3      16:   40    1:   15   10:   24
           4       1:   15    1:   15    1:   10
           5       1:   15    1:   15   11:   24
           6       1:   14   16:   40    1:    9
           7      15:   40   16:   40    9:   24
           8       1:   14   16:   40   10:   24
Setting up quadratic distribution...
ExtMesh (bp) on 0 =    54 x    70 x    50 =      189000
PhiOnMesh: Number of (b)points on node 0 =                 2184
PhiOnMesh: nlist on node 0 =                45795

        iscf     Eharris(eV)        E_KS(eV)     FreeEng(eV)     dDmax    Ef(eV) dHmax(eV)
   scf:    1     -500.792249     -835.311337     -835.311747  2.558268 -2.631993 47.538855
   scf:    2     4818.527117      812.677915      812.677913  3.829035 -6.089888148.440156
   scf:    3    -1420.630463    -1022.003033    -1022.003033  3.771519 -5.556053  4.115997
   scf:    4    -1024.257192    -1023.300446    -1023.300446  0.036799 -5.081691  2.258711
   scf:    5    -1024.131489    -1023.778189    -1023.778189  0.026574 -4.632005  0.948933
   scf:    6    -1023.878810    -1023.833421    -1023.833421  0.008018 -4.538362  0.293333
   scf:    7    -1023.847946    -1023.841801    -1023.841801  0.004932 -4.478559  0.066047
   scf:    8    -1023.842933    -1023.842409    -1023.842409  0.002439 -4.459704  0.028972
   scf:    9    -1023.842559    -1023.842498    -1023.842498  0.000738 -4.456506  0.004230
   scf:   10    -1023.842502    -1023.842500    -1023.842500  0.000095 -4.456654  0.002906
   scf:   11    -1023.842503    -1023.842502    -1023.842502  0.000153 -4.456467  0.000960
   scf:   12    -1023.842502    -1023.842502    -1023.842502  0.000033 -4.456452  0.000452

SCF Convergence by DM+H criterion
max |DM_out - DM_in|         :     0.0000333948
max |H_out - H_in|      (eV) :     0.0004520507
SCF cycle converged after 12 iterations

Using DM_out to compute the final energy and forces
No. of atoms with KB's overlaping orbs in proc 0. Max # of overlaps:      11     101

siesta: E_KS(eV) =            -1023.8425

zmatrix: Atomic forces (eV/Ang ; eV/deg )
zmatrix: (No information if symbols are used)
molecule    1 (    12 atoms)
     1    0.000000    0.000000    0.000000
     2    0.000000    0.000000    0.000000
     3    0.000000    0.000000    0.000000
     4    0.000000    0.000000    0.000000
     5    0.000000    0.000000    0.000000
     6    0.000000    0.000000    0.000000
     7    0.000000    0.000000    0.000000
     8    0.000000    0.000000    0.000000
     9    0.000000    0.000000    0.000000
    10    0.000000    0.000000    0.000000
    11    0.000000    0.000000    0.000000
    12    0.000000    0.000000    0.000000


Variable forces (eV/Ang ; eV/deg )
 xm1          4.5213272378284071     
 zm1          2.3650084052847234E-003
 CCC         -2.1217833915223035E-002
 CH         -0.81811121200446080     
 CCH         -7.9933629267108647E-004

siesta: Atomic forces (eV/Ang):
----------------------------------------
   Tot    0.008728   -0.005822    0.002365
----------------------------------------
   Max    0.748957
   Res    0.294718    sqrt( Sum f_i^2 / 3N )
----------------------------------------
   Max    0.748957    constrained

Stress tensor Voigt[x,y,z,yz,xz,xy] (kbar):        7.75        6.64       -0.05        0.00        0.00        0.89
(Free)E + p*V (eV/cell)    -1026.2696
Target enthalpy (eV/cell)    -1023.8425

cgvc_zmatrix: Finished line minimization    1.  Mean atomic displacement =    0.0007

                     ====================================
                        Begin CG opt. move =      3

zmatrix: Z-matrix coordinates: (Ang ; deg )
zmatrix: (Fractional coordinates have been converted to cartesian)
molecule    1 (    12 atoms)
      2.48800673      3.68000000      6.90323034
      1.41522227     90.00000000     60.00000000
      1.41522227    119.85502694     90.00000000
      1.41522227    119.85502694      0.00000000
      1.41522227    119.85502694      0.00000000
      1.41522227    119.85502694      0.00000000
      1.11168455    119.99684379    180.00000000
      1.11168455    119.99684379      0.00000000
      1.11168455    119.99684379      0.00000000
      1.11168455    119.99684379      0.00000000
      1.11168455    119.99684379      0.00000000
      1.11168455    119.99684379      0.00000000


Z-matrix Symbol Section -------
Variables
 xm1          2.4880067263628098     
 zm1          6.9032303422258190     
 CCC          119.85502693845490     
 CH           1.1116845537882389     
 CCH          119.99684379370464     
Constants
 ym1          3.6800000000000002     
 CC           1.4152222736371902     
------------ End of Z-matrix Information

                     ====================================

outcell: Unit cell vectors (Ang):
       11.776283    0.000000    0.000000
        0.000000   11.030875    0.000000
        0.000000    0.000000    6.266317

outcell: Cell vector modules (Ang)   :   11.776283   11.030875    6.266317
outcell: Cell angles (23,13,12) (deg):     90.0000     90.0000     90.0000
outcell: Cell volume (Ang**3)        :    814.0116
<dSpData1D:S at geom step 3
  <sparsity:sparsity for geom step 3
    nrows_g=108 nrows=14 sparsity=.1296 nnzs=1512, refcount: 7>
  <dData1D:(new from dSpData1D) n=1512, refcount: 1>
refcount: 1>
new_DM -- step:     4
Re-using DM from previous geometries...
Number of DMs in history: 1
 DM extrapolation coefficients: 
1   1.00000
New DM after history re-use:
<dSpData2D:SpM extrapolated using coords
  <sparsity:sparsity for geom step 3
    nrows_g=108 nrows=14 sparsity=.1296 nnzs=1512, refcount: 9>
  <dData2D:(temp array for extrapolation) n=1512 m=1, refcount: 1>
refcount: 1>
No. of atoms with KB's overlaping orbs in proc 0. Max # of overlaps:      11     101
New grid distribution:   1
           1       1:   40    1:   20    1:    6
           2       1:   40    1:   20    7:   12
           3       1:   40    1:   20   13:   18
           4       1:   40    1:   20   19:   24
           5       1:   40   21:   40    1:    6
           6       1:   40   21:   40    7:   12
           7       1:   40   21:   40   13:   18
           8       1:   40   21:   40   19:   24

InitMesh: MESH =    80 x    80 x    48 =      307200
InitMesh: (bp) =    40 x    40 x    24 =       38400
InitMesh: Mesh cutoff (required, used) =   120.000   127.546 Ry
ExtMesh (bp) on 0 =    80 x    64 x    50 =      256000
New grid distribution:   2
           1      15:   40   15:   40    1:    6
           2      14:   40    1:   14    7:   24
           3       1:   13    1:   14    7:   24
           4       1:   14   15:   40    1:    6
           5      14:   40    1:   14    1:    6
           6      15:   40   15:   40    7:   24
           7       1:   14   15:   40    7:   24
           8       1:   13    1:   14    1:    6
New grid distribution:   3
           1      15:   40   16:   40    1:    8
           2      16:   40    1:   15    1:    9
           3      16:   40    1:   15   10:   24
           4       1:   15    1:   15    1:   10
           5       1:   15    1:   15   11:   24
           6       1:   14   16:   40    1:    9
           7      15:   40   16:   40    9:   24
           8       1:   14   16:   40   10:   24
Setting up quadratic distribution...
ExtMesh (bp) on 0 =    66 x    70 x    50 =      231000
PhiOnMesh: Number of (b)points on node 0 =                 4056
PhiOnMesh: nlist on node 0 =                42304

        iscf     Eharris(eV)        E_KS(eV)     FreeEng(eV)     dDmax    Ef(eV) dHmax(eV)
   scf:    1    -1023.800769    -1023.848185    -1023.848185  0.002222 -4.450778  0.035860
   scf:    2    -1023.846824    -1023.847823    -1023.847823  0.001829 -4.461968  0.089959
   scf:    3    -1023.848385    -1023.848265    -1023.848265  0.001319 -4.454570  0.002472
   scf:    4    -1023.848267    -1023.848267    -1023.848267  0.000079 -4.454571  0.001036
   scf:    5    -1023.848267    -1023.848267    -1023.848267  0.000063 -4.454295  0.000159

SCF Convergence by DM+H criterion
max |DM_out - DM_in|         :     0.0000633285
max |H_out - H_in|      (eV) :     0.0001593852
SCF cycle converged after 5 iterations

Using DM_out to compute the final energy and forces
No. of atoms with KB's overlaping orbs in proc 0. Max # of overlaps:      11     101

siesta: E_KS(eV) =            -1023.8483

zmatrix: Atomic forces (eV/Ang ; eV/deg )
zmatrix: (No information if symbols are used)
molecule    1 (    12 atoms)
     1    0.000000    0.000000    0.000000
     2    0.000000    0.000000    0.000000
     3    0.000000    0.000000    0.000000
     4    0.000000    0.000000    0.000000
     5    0.000000    0.000000    0.000000
     6    0.000000    0.000000    0.000000
     7    0.000000    0.000000    0.000000
     8    0.000000    0.000000    0.000000
     9    0.000000    0.000000    0.000000
    10    0.000000    0.000000    0.000000
    11    0.000000    0.000000    0.000000
    12    0.000000    0.000000    0.000000


Variable forces (eV/Ang ; eV/deg )
 xm1          4.0704513153352497     
 zm1          2.2875932282968160E-003
 CCC         -1.3860122076894913E-003
 CH         -0.76654581444701031     
 CCH         -8.4537060120773520E-004

siesta: Atomic forces (eV/Ang):
----------------------------------------
   Tot    0.009515   -0.002737    0.002288
----------------------------------------
   Max    0.699595
   Res    0.281829    sqrt( Sum f_i^2 / 3N )
----------------------------------------
   Max    0.699595    constrained

Stress tensor Voigt[x,y,z,yz,xz,xy] (kbar):        7.13        5.87       -0.05        0.00        0.00        1.00
(Free)E + p*V (eV/cell)    -1026.0405
Target enthalpy (eV/cell)    -1023.8483

                     ====================================
                        Begin CG opt. move =      4

zmatrix: Z-matrix coordinates: (Ang ; deg )
zmatrix: (Fractional coordinates have been converted to cartesian)
molecule    1 (    12 atoms)
      2.49003210      3.68000000      6.90323138
      1.41319690     90.00000000     60.00000000
      1.41319690    119.82901573     90.00000000
      1.41319690    119.82901573      0.00000000
      1.41319690    119.82901573      0.00000000
      1.41319690    119.82901573      0.00000000
      1.11130680    119.99168962    180.00000000
      1.11130680    119.99168962      0.00000000
      1.11130680    119.99168962      0.00000000
      1.11130680    119.99168962      0.00000000
      1.11130680    119.99168962      0.00000000
      1.11130680    119.99168962      0.00000000


Z-matrix Symbol Section -------
Variables
 xm1          2.4900320988929887     
 zm1          6.9032313793183162     
 CCC          119.82901572883578     
 CH           1.1113068025402759     
 CCH          119.99168961603453     
Constants
 ym1          3.6800000000000002     
 CC           1.4131969011070111     
------------ End of Z-matrix Information

                     ====================================

outcell: Unit cell vectors (Ang):
       11.776283    0.000000    0.000000
        0.000000   11.030875    0.000000
        0.000000    0.000000    6.266317

outcell: Cell vector modules (Ang)   :   11.776283   11.030875    6.266317
outcell: Cell angles (23,13,12) (deg):     90.0000     90.0000     90.0000
outcell: Cell volume (Ang**3)        :    814.0116
<dSpData1D:S at geom step 4
  <sparsity:sparsity for geom step 4
    nrows_g=108 nrows=14 sparsity=.1296 nnzs=1512, refcount: 7>
  <dData1D:(new from dSpData1D) n=1512, refcount: 1>
refcount: 1>
new_DM -- step:     5
Re-using DM from previous geometries...
Number of DMs in history: 1
 DM extrapolation coefficients: 
1   1.00000
New DM after history re-use:
<dSpData2D:SpM extrapolated using coords
  <sparsity:sparsity for geom step 4
    nrows_g=108 nrows=14 sparsity=.1296 nnzs=1512, refcount: 9>
  <dData2D:(temp array for extrapolation) n=1512 m=1, refcount: 1>
refcount: 1>
No. of atoms with KB's overlaping orbs in proc 0. Max # of overlaps:      11     101
New grid distribution:   1
           1       1:   40    1:   20    1:    6
           2       1:   40    1:   20    7:   12
           3       1:   40    1:   20   13:   18
           4       1:   40    1:   20   19:   24
           5       1:   40   21:   40    1:    6
           6       1:   40   21:   40    7:   12
           7       1:   40   21:   40   13:   18
           8       1:   40   21:   40   19:   24

InitMesh: MESH =    80 x    80 x    48 =      307200
InitMesh: (bp) =    40 x    40 x    24 =       38400
InitMesh: Mesh cutoff (required, used) =   120.000   127.546 Ry
ExtMesh (bp) on 0 =    80 x    64 x    50 =      256000
New grid distribution:   2
           1      15:   40   15:   40    1:    6
           2      14:   40    1:   14    7:   24
           3       1:   13    1:   14    7:   24
           4       1:   14   15:   40    1:    6
           5      14:   40    1:   14    1:    6
           6      15:   40   15:   40    7:   24
           7       1:   14   15:   40    7:   24
           8       1:   13    1:   14    1:    6
New grid distribution:   3
           1      15:   40   16:   40    1:    8
           2      16:   40    1:   15    1:    9
           3      16:   40    1:   15   10:   24
           4       1:   15    1:   15    1:   10
           5       1:   15    1:   15   11:   24
           6       1:   14   16:   40    1:    9
           7      15:   40   16:   40    9:   24
           8       1:   14   16:   40   10:   24
Setting up quadratic distribution...
ExtMesh (bp) on 0 =    66 x    70 x    50 =      231000
PhiOnMesh: Number of (b)points on node 0 =                 4056
PhiOnMesh: nlist on node 0 =                42237

        iscf     Eharris(eV)        E_KS(eV)     FreeEng(eV)     dDmax    Ef(eV) dHmax(eV)
   scf:    1    -1023.778856    -1023.855431    -1023.855431  0.003503 -4.445182  0.056185
   scf:    2    -1023.852110    -1023.854546    -1023.854546  0.002844 -4.463062  0.140607
   scf:    3    -1023.855935    -1023.855642    -1023.855642  0.002048 -4.451202  0.003903
   scf:    4    -1023.855647    -1023.855645    -1023.855645  0.000126 -4.451197  0.001655
   scf:    5    -1023.855646    -1023.855645    -1023.855645  0.000100 -4.450760  0.000255
   scf:    6    -1023.855645    -1023.855645    -1023.855645  0.000010 -4.450738  0.000137

SCF Convergence by DM+H criterion
max |DM_out - DM_in|         :     0.0000097014
max |H_out - H_in|      (eV) :     0.0001374778
SCF cycle converged after 6 iterations

Using DM_out to compute the final energy and forces
No. of atoms with KB's overlaping orbs in proc 0. Max # of overlaps:      11     101

siesta: E_KS(eV) =            -1023.8556

zmatrix: Atomic forces (eV/Ang ; eV/deg )
zmatrix: (No information if symbols are used)
molecule    1 (    12 atoms)
     1    0.000000    0.000000    0.000000
     2    0.000000    0.000000    0.000000
     3    0.000000    0.000000    0.000000
     4    0.000000    0.000000    0.000000
     5    0.000000    0.000000    0.000000
     6    0.000000    0.000000    0.000000
     7    0.000000    0.000000    0.000000
     8    0.000000    0.000000    0.000000
     9    0.000000    0.000000    0.000000
    10    0.000000    0.000000    0.000000
    11    0.000000    0.000000    0.000000
    12    0.000000    0.000000    0.000000


Variable forces (eV/Ang ; eV/deg )
 xm1          3.3462156549633915     
 zm1          2.0932763759685595E-003
 CCC          3.0864614053629110E-002
 CH         -0.68418885041328970     
 CCH         -9.3791041145237144E-004

siesta: Atomic forces (eV/Ang):
----------------------------------------
   Tot    0.004900   -0.001628    0.002093
----------------------------------------
   Max    0.707900
   Res    0.269831    sqrt( Sum f_i^2 / 3N )
----------------------------------------
   Max    0.707900    constrained

Stress tensor Voigt[x,y,z,yz,xz,xy] (kbar):        6.14        4.64       -0.05        0.00       -0.00        1.19
(Free)E + p*V (eV/cell)    -1025.6717
Target enthalpy (eV/cell)    -1023.8556

outcoor: Final (unrelaxed) atomic coordinates (Ang):        
    2.49003210    3.68000000    6.90323138   2       1  C
    3.19663055    4.90386442    6.90323138   2       2  C
    4.60982116    4.89964711    6.90323138   2       3  C
    5.30910246    3.67158720    6.90323138   2       4  C
    4.59157556    2.45409772    6.90323138   2       5  C
    3.17847934    2.47096658    6.90323138   2       6  C
    1.37872531    3.68016119    6.90323138   1       7  H
    2.64083756    5.86620374    6.90323138   1       8  H
    5.16820481    5.86048554    6.90323138   1       9  H
    6.42039042    3.66511561    6.90323138   1      10  H
    5.13873084    1.48682117    6.90323138   1      11  H
    2.61151607    1.51516563    6.90323138   1      12  H

zmatrix: Z-matrix coordinates: (Ang ; deg )
zmatrix: (Fractional coordinates have been converted to cartesian)
molecule    1 (    12 atoms)
      2.49327269      3.68000000      6.90323304
      1.40995631     90.00000000     60.00000000
      1.40995631    119.78739779     90.00000000
      1.40995631    119.78739779      0.00000000
      1.40995631    119.78739779      0.00000000
      1.40995631    119.78739779      0.00000000
      1.11070240    119.98344293    180.00000000
      1.11070240    119.98344293      0.00000000
      1.11070240    119.98344293      0.00000000
      1.11070240    119.98344293      0.00000000
      1.11070240    119.98344293      0.00000000
      1.11070240    119.98344293      0.00000000


Z-matrix Symbol Section -------
Variables
 xm1          2.4932726949412753     
 zm1          6.9032330386663121     
 CCC          119.78739779344521     
 CH           1.1107024005435351     
 CCH          119.98344293176235     
Constants
 ym1          3.6800000000000002     
 CC           1.4099563050587245     
------------ End of Z-matrix Information


siesta: Program's energy decomposition (eV):
siesta: Ebs     =      -358.420906
siesta: Eions   =      1613.953835
siesta: Ena     =       340.416015
siesta: Ekin    =       732.406232
siesta: Enl     =      -119.349231
siesta: Eso     =         0.000000
siesta: Edftu   =         0.000000
siesta: DEna    =       -33.932115
siesta: DUscf   =         3.792773
siesta: DUext   =         0.000000
siesta: Exc     =      -333.235484
siesta: eta*DQ  =         0.000000
siesta: Emadel  =         0.000000
siesta: Emeta   =         0.000000
siesta: Emolmec =         0.000000
siesta: Ekinion =         0.000000
siesta: Eharris =     -1023.855645
siesta: Etot    =     -1023.855645
siesta: FreeEng =     -1023.855645

siesta: Final energy (eV):
siesta:  Band Struct. =    -358.420906
siesta:       Kinetic =     732.406232
siesta:       Hartree =    1842.591978
siesta:       Edftu   =       0.000000
siesta:       Eso     =       0.000000
siesta:    Ext. field =       0.000000
siesta:   Exch.-corr. =    -333.235484
siesta:  Ion-electron =   -4340.460392
siesta:       Ion-ion =    1074.842021
siesta:       Ekinion =       0.000000
siesta:         Total =   -1023.855645
siesta:         Fermi =      -4.450738

siesta: Atomic forces (eV/Ang):
siesta:      1    0.124666    0.707900    0.000209
siesta:      2    0.378104   -0.465705    0.000399
siesta:      3   -0.393993   -0.490250    0.000315
siesta:      4   -0.622278   -0.052975    0.000242
siesta:      5   -0.191654    0.565590    0.000218
siesta:      6    0.673642   -0.259156   -0.000037
siesta:      7    0.109408    0.036115   -0.000392
siesta:      8    0.066687   -0.098850   -0.000258
siesta:      9   -0.050782   -0.104859    0.000151
siesta:     10   -0.118536   -0.009259   -0.000318
siesta:     11   -0.058812    0.100769    0.000856
siesta:     12    0.088447    0.069052    0.000709
siesta: ----------------------------------------
siesta:    Tot    0.004900   -0.001628    0.002093

siesta: Stress tensor (static) (eV/Ang**3):
siesta:     0.003832    0.000745   -0.000000
siesta:     0.000745    0.002894    0.000000
siesta:    -0.000000    0.000000   -0.000033

siesta: Cell volume =        814.011582 Ang**3

siesta: Pressure (static):
siesta:                Solid            Molecule  Units
siesta:          -0.00002430          0.00000018  Ry/Bohr**3
siesta:          -0.00223101          0.00001677  eV/Ang**3
siesta:          -3.57451089          0.02687290  kBar
(Free)E+ p_basis*V_orbitals  =       -1019.852452
(Free)Eharris+ p_basis*V_orbitals  =       -1019.852452

siesta: Electric dipole (a.u.)  =   -0.001147   -0.000277   -0.000066
siesta: Electric dipole (Debye) =   -0.002915   -0.000703   -0.000167

cite: Please see "benzene.bib" for an exhaustive BiBTeX file.
cite: Please clearly indicate Siesta version in published work: v4.1-b4-351
cite: This calculation has made use of the following articles
cite: which are encouraged to be cited in a published work.
        Primary SIESTA paper
          DOI: www.doi.org/10.1088/0953-8984/14/11/302

>> End of run:  22-JAN-2021  21:47:24
Job completed
