Siesta Version  : v4.1-b4-351
Architecture    : x86_64-linux-n-62-26-19
Compiler version: GNU Fortran (GCC) 9.3.0
Compiler flags  : mpifort -m64 -fPIC -O3 -march=native -ftree-vectorize -fexpensive-optimizatioons -funroll-loops -fprefetch-loop-arrays -fno-second-underscore  -flto
PP flags        : -I/dtu/sw/dcc/SL73/2020-aug/generic/build-tools/1.0/include -I/dtu/sw/dcc/SL773/2020-aug/generic/gcc/9.3.0/include -I/dtu/sw/dcc/SL73/2020-aug/generic/gcc/9.3.0/include -I/dtu/sw/dcc/SL73/2020-aug/XeonE5-2660v3/gnu/9.3.0/zlib/1.2.11/include -I/dtu/sw/dcc/SL73/2020-aug/generic/numactl/2.0.12/include -I/dtu/sw/dcc/SL73/2020-aug/XeonE5-2660v3/gnu/9.3.0/libxml2/2.9.10/include -I/dtu/sw/dcc/SL73/2020-aug/XeonE5-2660v3/gnu/9.3.0/hwloc/2.2.0/include -I/dtu/sw/dcc/SL73/2020-aug/XeonE5-2660v3/gnu/9.3.0/knem/1.1.4/include -I/dtu/sw/dcc/SL73/2020-aug/XeonE5-2660v3/gnu/9.3.0/ucx/1.8.1/include -I/dtu/sw/dcc/SL73/2020-aug/XeonE5-2660v3/gnu/9.3.0/openmpi/4.0.4/include -I/dtu/sw/dcc/SL73/2020-aug/XeonE5-2660v3/gnu/9.3.0/szip/2.1.1/include -I/dtu/sw/dcc/SL73/2020-aug/XeonE5-2660v3/gnu/9.3.0/hdf5/1.12.0/include -I/dtu/sw/dcc/SL73/2020-aug/XeonE5-2660v3/gnu/9.3.0/pnetcdf/1.12.1/include -I/dtu/sw/dcc/SL73/2020-aug/generic/gen-zlib/1.2.11/include -I/dtu/sw/dcc/SL73/2020-aug/generic/openssl/1.1.1/include -I/dtu/sw/dcc/SL73/2020-aug/generic/libssh2/1.8.2/include -I/dtu/sw/dcc/SL73/2020-aug/generic/curl/7.65.1/include -I/dtu/sw/dcc/SL73/2020-aug/XeonE5-2660v3/gnu/9.3.0/netcdf/4.7.4/include -I/dtu/sw/dcc/SL73/2020-aug/XeonE5-2660v3/gnu/9.3.0/flook/0.8.1/include -I/dtu/sw/dcc/SL73/2020-aug/XeonE5-2660v3/gnu/9.3.0/fftw/3.3.8/include -I/dtu/sw/dcc/SL73/2020-aug/XeonE5-2660v3/gnu/9.3.0/parmetis/4.0.3/include -I/dtu/sw/dcc/SL73/2020-aug/XeonE5-2660v3/gnu/9.3.0/scalapack/2.1.0/include -I/dtu/sw/dcc/SL73/2020-aug/XeonE5-2660v3/gnu/9.3.0/lapack/3.9.0/include -I/dtu/sw/dcc/SL73/2020-aug/XeonE5-2660v3/gnu/9.3.0/blis/0.7.0/include -I/dtu/sw/dcc/SL73/2020-aug/XeonE5-2660v3/gnu/9.3.0/scotch/6.0.9/include -I/dtu/sw/dcc/SL73/2020-aug/XeonE5-2660v3/gnu/9.3.0/mumps/5.3.3/include -I/dtu/sw/dcc/SL73/2020-aug/XeonE5-2660v3/gnu/9.3.0/elpa/2020.05.001/include -DSIESTA__ELPA -DMPI -DFC_HAVE_FLUSH -DFC_HAVE_ABORT -DCDF -DCDF4 -DSIESTA__FLOOK  -DNCDF -DNCDF_4 -DNCDF_PARALLEL -DTS_NOCHECKS -DSIESTA__METIS -DSIESTA__MUMPS -DSIESTA__MRRR -I/dtu/sw/dcc/SL73/2020-aug/XeonE5-2660v3/gnu/9.3.0/elpa/2020.05.001/include/elpa
Libraries       : libncdf.a libfdict.a -lnetcdff -lnetcdf -lpnetcdf -lhdf5_hl -lhdf5 -lz  -lzmuumps -lmumps_common -lesmumps -lscotch -lscotcherr -lpord -lparmetis -lmetis -lelpa -lscalapack -llapack -lblis  -L/dtu/sw/dcc/SL73/2020-aug/XeonE5-2660v3/gnu/9.3.0/flook/0.8.1/lib -Wl,-rpath=/dtu/sw/dcc/SL73/2020-aug/XeonE5-2660v3/gnu/9.3.0/flook/0.8.1/lib -lflookall -ldl  -flto -fuse-linker-plugin  -lmetis
PARALLEL version
NetCDF support
NetCDF-4 support
NetCDF-4 MPI-IO support
METIS ordering support
Lua support

* Running on 2 nodes in parallel
>> Start of run:  22-JAN-2021  21:01:21

                           ***********************       
                           *  WELCOME TO SIESTA  *       
                           ***********************       

reinit: Reading from ../born.fdf

reinit: -----------------------------------------------------------------------
reinit: System Name: si2 Force constants
reinit: -----------------------------------------------------------------------
reinit: System Label: born
reinit: -----------------------------------------------------------------------

initatom: Reading input for the pseudopotentials and atomic orbitals ----------
Species number:   1 Atomic number:   14 Label: Si

Ground state valence configuration:   3s02  3p02
Reading pseudopotential information in formatted form from Si.psf

Valence configuration for pseudopotential generation:
3s( 2.00) rc: 1.89
3p( 2.00) rc: 1.89
3d( 0.00) rc: 1.89
4f( 0.00) rc: 1.89
For Si, standard SIESTA heuristics set lmxkb to 2
 (one more than the basis l, including polarization orbitals).
Use PS.lmax or PS.KBprojectors blocks to override.

<basis_specs>
===============================================================================
Si                   Z=  14    Mass=  28.090        Charge= 0.17977+309
Lmxo=1 Lmxkb= 2    BasisType=split      Semic=F
L=0  Nsemic=0  Cnfigmx=3
          i=1  nzeta=1  polorb=0  (3s)
            splnorm:   0.15000    
               vcte:    0.0000    
               rinn:    0.0000    
               qcoe:    0.0000    
               qyuk:    0.0000    
               qwid:   0.10000E-01
                rcs:    0.0000    
            lambdas:    1.0000    
L=1  Nsemic=0  Cnfigmx=3
          i=1  nzeta=1  polorb=0  (3p)
            splnorm:   0.15000    
               vcte:    0.0000    
               rinn:    0.0000    
               qcoe:    0.0000    
               qyuk:    0.0000    
               qwid:   0.10000E-01
                rcs:    0.0000    
            lambdas:    1.0000    
-------------------------------------------------------------------------------
L=0  Nkbl=1  erefs: 0.17977+309
L=1  Nkbl=1  erefs: 0.17977+309
L=2  Nkbl=1  erefs: 0.17977+309
===============================================================================
</basis_specs>

atom: Called for Si                    (Z =  14)

read_vps: Pseudopotential generation method:
read_vps: ATM3      Troullier-Martins                       
Valence charge for ps generation:    4.00000

xc_check: Exchange-correlation functional:
xc_check: Ceperley-Alder
V l=0 = -2*Zval/r beyond r=  2.5494
V l=1 = -2*Zval/r beyond r=  2.5494
V l=2 = -2*Zval/r beyond r=  2.5494
All V_l potentials equal beyond r=  1.8652
This should be close to max(r_c) in ps generation
All pots = -2*Zval/r beyond r=  2.5494
Using large-core scheme for Vlocal

atom: Estimated core radius    2.54944

atom: Including non-local core corrections could be a good idea
atom: Maximum radius for 4*pi*r*r*local-pseudopot. charge    2.85303
atom: Maximum radius for r*vlocal+2*Zval:    2.58151
GHOST: No ghost state for L =  0
GHOST: No ghost state for L =  1
GHOST: No ghost state for L =  2

KBgen: Kleinman-Bylander projectors: 
   l= 0   rc=  1.936440   el= -0.796617   Ekb=  4.661340   kbcos=  0.299756
   l= 1   rc=  1.936440   el= -0.307040   Ekb=  1.494238   kbcos=  0.301471
   l= 2   rc=  1.936440   el=  0.002313   Ekb= -2.808672   kbcos= -0.054903

KBgen: Total number of  Kleinman-Bylander projectors:    9
atom: -------------------------------------------------------------------------

atom: SANKEY-TYPE ORBITALS:

SPLIT: Orbitals with angular momentum L= 0

SPLIT: Basis orbitals for state 3s

SPLIT: PAO cut-off radius determined from an
SPLIT: energy shift=  0.020000 Ry

   izeta = 1
                 lambda =    1.000000
                     rc =    5.007352
                 energy =   -0.777669
                kinetic =    0.573829
    potential(screened) =   -1.351499
       potential(ionic) =   -3.827441

SPLIT: Orbitals with angular momentum L= 1

SPLIT: Basis orbitals for state 3p

SPLIT: PAO cut-off radius determined from an
SPLIT: energy shift=  0.020000 Ry

   izeta = 1
                 lambda =    1.000000
                     rc =    6.270866
                 energy =   -0.288955
                kinetic =    0.877930
    potential(screened) =   -1.166885
       potential(ionic) =   -3.426998
atom: Total number of Sankey-type orbitals:  4

atm_pop: Valence configuration (for local Pseudopot. screening):
 3s( 2.00)                                                            
 3p( 2.00)                                                            
Vna: chval, zval:    4.00000   4.00000

Vna:  Cut-off radius for the neutral-atom potential:   6.270866

atom: _________________________________________________________________________

prinput: Basis input ----------------------------------------------------------

PAO.BasisType split     

%block ChemicalSpeciesLabel
    1   14 Si                      # Species index, atomic number, species label
%endblock ChemicalSpeciesLabel

%block PAO.Basis                 # Define Basis set
Si                    2                    # Species label, number of l-shells
 n=3   0   1                         # n, l, Nzeta 
   5.007   
   1.000   
 n=3   1   1                         # n, l, Nzeta 
   6.271   
   1.000   
%endblock PAO.Basis

prinput: ----------------------------------------------------------------------

Dumping basis to NetCDF file Si.ion.nc
coor:   Atomic-coordinates input format  =     Fractional

siesta: Atomic coordinates (Bohr) and species
siesta:      0.00000   0.00000   0.00000  1        1
siesta:      2.56530   2.56530   2.56530  1        2

siesta: System type = bulk      

initatomlists: Number of atoms, orbitals, and projectors:      2     8    18

siesta: ******************** Simulation parameters ****************************
siesta:
siesta: The following are some of the parameters of the simulation.
siesta: A complete list of the parameters used, including default values,
siesta: can be found in file out.fdf
siesta:
redata: Spin configuration                          = none
redata: Number of spin components                   = 1
redata: Time-Reversal Symmetry                      = T
redata: Spin spiral                                 = F
redata: Long output                                 =   T
redata: Number of Atomic Species                    =        1
redata: Charge density info will appear in .RHO file
redata: Write Mulliken Pop.                         = Atomic and Orbital charges
redata: Matel table size (NRTAB)                    =     1024
redata: Mesh Cutoff                                 =   130.0000 Ry
redata: Net charge of the system                    =     0.0000 |e|
redata: Min. number of SCF Iter                     =        0
redata: Max. number of SCF Iter                     =     1000
redata: SCF convergence failure will abort job
redata: SCF mix quantity                            = Hamiltonian
redata: Mix DM or H after convergence               =   F
redata: Recompute H after scf cycle                 =   F
redata: Mix DM in first SCF step                    =   T
redata: Write Pulay info on disk                    =   F
redata: New DM Occupancy tolerance                  = 0.000000000001
redata: No kicks to SCF
redata: DM Mixing Weight for Kicks                  =     0.5000
redata: Require Harris convergence for SCF          =   F
redata: Harris energy tolerance for SCF             =     0.000100 eV
redata: Require DM convergence for SCF              =   T
redata: DM tolerance for SCF                        =     0.000100
redata: Require EDM convergence for SCF             =   F
redata: EDM tolerance for SCF                       =     0.001000 eV
redata: Require H convergence for SCF               =   T
redata: Hamiltonian tolerance for SCF               =     0.001000 eV
redata: Require (free) Energy convergence for SCF   =   F
redata: (free) Energy tolerance for SCF             =     0.000100 eV
redata: Using Saved Data (generic)                  =   F
redata: Use continuation files for DM               =   F
redata: Neglect nonoverlap interactions             =   F
redata: Method of Calculation                       = Diagonalization
redata: Electronic Temperature                      =   299.9869 K
redata: Fix the spin of the system                  =   F
redata: Dynamics option                             = Force Constants Matrix Calculation
redata: Atomic displ for force constants            =     0.0212  Ang
redata: First atom to move                          =        1
redata: Last atom to move                           =        2
mix.SCF: Pulay mixing                            = Pulay
mix.SCF:    Variant                              = stable
mix.SCF:    History steps                        = 2
mix.SCF:    Linear mixing weight                 =     0.250000
mix.SCF:    Mixing weight                        =     0.250000
mix.SCF:    SVD condition                        = 0.1000E-07
redata: Save all siesta data in one NC              =   F
redata: ***********************************************************************

%block SCF.Mixers
  Pulay
%endblock SCF.Mixers

%block SCF.Mixer.Pulay
  # Mixing method
  method pulay
  variant stable

  # Mixing options
  weight 0.2500
  weight.linear 0.2500
  history 2
%endblock SCF.Mixer.Pulay

DM_history_depth set to one for 'Forces' run
Size of DM history Fstack: 1
Total number of electrons:     8.000000
Total ionic charge:     8.000000

* ProcessorY, Blocksize:    1   5


* Orbital distribution balance (max,min):     5     3

 Kpoints in:            1 . Kpoints trimmed:            1

siesta: k-point coordinates (Bohr**-1) and weights:
siesta:    1    0.000000    0.000000    0.000000       1.000000

siesta: k-grid: Number of k-points =     1
siesta: k-grid: Cutoff (effective) =     1.920 Ang
siesta: k-grid: Supercell and displacements
siesta: k-grid:    1   0   0      0.000
siesta: k-grid:    0   1   0      0.000
siesta: k-grid:    0   0   1      0.000

diag: Algorithm                                     = D&C
diag: Parallel over k                               =   F
diag: Use parallel 2D distribution                  =   F
diag: Parallel block-size                           = 5
diag: Parallel distribution                         =     1 x     2
diag: Used triangular part                          = Lower
diag: Absolute tolerance                            =  0.100E-15
diag: Orthogonalization factor                      =  0.100E-05
diag: Memory factor                                 =  1.0000

superc: Internal auxiliary supercell:     5 x     5 x     5  =     125
superc: Number of atoms, orbitals, and projectors:    250   1000   2250


ts: **************************************************************
ts: Save H and S matrices                           =    F
ts: Save DM and EDM matrices                        =    F
ts: Only save the overlap matrix S                  =    F
ts: **************************************************************

************************ Begin: TS CHECKS AND WARNINGS ************************
************************ End: TS CHECKS AND WARNINGS **************************


                     ====================================
                        Begin FC step =      0
                        Undisplaced coordinates
                     ====================================

outcoor: Atomic coordinates (fractional):                   
    0.00000000    0.00000000    0.00000000   1       1  Si
    0.25000000    0.25000000    0.25000000   1       2  Si

superc: Internal auxiliary supercell:     5 x     5 x     5  =     125
superc: Number of atoms, orbitals, and projectors:    250   1000   2250

outcell: Unit cell vectors (Ang):
        0.000000    2.715000    2.715000
        2.715000    0.000000    2.715000
        2.715000    2.715000    0.000000

outcell: Cell vector modules (Ang)   :    3.839590    3.839590    3.839590
outcell: Cell angles (23,13,12) (deg):     60.0000     60.0000     60.0000
outcell: Cell volume (Ang**3)        :     40.0258
<dSpData1D:S at geom step 0
  <sparsity:sparsity for geom step 0
    nrows_g=8 nrows=5 sparsity=19.1875 nnzs=1228, refcount: 7>
  <dData1D:(new from dSpData1D) n=1228, refcount: 1>
refcount: 1>
new_DM -- step:     1
Initializing Density Matrix...
DM filled with atomic data:
<dSpData2D:DM initialized from atoms
  <sparsity:sparsity for geom step 0
    nrows_g=8 nrows=5 sparsity=19.1875 nnzs=1228, refcount: 8>
  <dData2D:DM n=1228 m=1, refcount: 1>
refcount: 1>
No. of atoms with KB's overlaping orbs in proc 0. Max # of overlaps:      17      56
New grid distribution:   1
           1       1:   12    1:   12    1:    6
           2       1:   12    1:   12    7:   12

InitMesh: MESH =    24 x    24 x    24 =       13824
InitMesh: (bp) =    12 x    12 x    12 =        1728
InitMesh: Mesh cutoff (required, used) =   130.000   161.974 Ry
ExtMesh (bp) on 0 =    64 x    64 x    58 =      237568
New grid distribution:   2
           1       1:   12    1:   12    1:    6
           2       1:   12    1:   12    7:   12
New grid distribution:   3
           1       1:   12    1:   12    1:    6
           2       1:   12    1:   12    7:   12
Setting up quadratic distribution...
ExtMesh (bp) on 0 =    64 x    64 x    58 =      237568
PhiOnMesh: Number of (b)points on node 0 =                  864
PhiOnMesh: nlist on node 0 =                24886

stepf: Fermi-Dirac step function

siesta: Program's energy decomposition (eV):
siesta: Ebs     =       -46.737489
siesta: Eions   =       380.802124
siesta: Ena     =       115.502488
siesta: Ekin    =       115.572468
siesta: Enl     =        29.933002
siesta: Eso     =         0.000000
siesta: Edftu   =         0.000000
siesta: DEna    =        -8.119944
siesta: DUscf   =         1.765371
siesta: DUext   =         0.000000
siesta: Exc     =       -68.547556
siesta: eta*DQ  =         0.000000
siesta: Emadel  =         0.000000
siesta: Emeta   =         0.000000
siesta: Emolmec =         0.000000
siesta: Ekinion =         0.000000
siesta: Eharris =      -173.640155
siesta: Etot    =      -194.696296
siesta: FreeEng =      -194.696296

        iscf     Eharris(eV)        E_KS(eV)     FreeEng(eV)     dDmax    Ef(eV) dHmax(eV)
   scf:    1     -173.640155     -194.696296     -194.696296  1.452350 -2.698949  1.168372
timer: Routine,Calls,Time,% = IterSCF        1       0.046  17.91
   scf:    2     -194.696296     -194.696296     -194.696296  0.000000 -2.361454  0.876279
   scf:    3     -194.696296     -194.696296     -194.696296  0.000000 -1.348968  0.000000

SCF Convergence by DM+H criterion
max |DM_out - DM_in|         :     0.0000000000
max |H_out - H_in|      (eV) :     0.0000000000
SCF cycle converged after 3 iterations

Using DM_out to compute the final energy and forces
No. of atoms with KB's overlaping orbs in proc 0. Max # of overlaps:      17      56

siesta: E_KS(eV) =             -194.6963

siesta: E_KS - E_eggbox =      -194.6963

siesta: Atomic forces (eV/Ang):
     1   -0.000000   -0.000000   -0.000000
     2    0.000000    0.000000    0.000000
----------------------------------------
   Tot   -0.000000    0.000000   -0.000000
----------------------------------------
   Max    0.000000
   Res    0.000000    sqrt( Sum f_i^2 / 3N )
----------------------------------------
   Max    0.000000    constrained

Stress tensor Voigt[x,y,z,yz,xz,xy] (kbar):     -515.35     -515.35     -515.35       -0.00       -0.00       -0.00
(Free)E + p*V (eV/cell)     -181.8218
Target enthalpy (eV/cell)     -194.6963

mulliken: Atomic and Orbital Populations:

Species: Si                  
Atom  Qatom  Qorb
               3s      3py     3pz     3px     
   1  4.000   1.000   1.000   1.000   1.000
   2  4.000   1.000   1.000   1.000   1.000

mulliken: Qtot =        8.000

siesta: Calculating polarization. 

siesta: Macroscopic polarization per unit cell (a.u.):
siesta: Along the lattice vectors      7.255776    7.255776   21.767328
siesta: Along cartesian directions    20.522434   20.522434   10.261217

siesta: Macroscopic polarization per unit cell (Debye):
siesta: Along the lattice vectors     18.442356   18.442356   55.327068
siesta: Along cartesian directions    52.162860   52.162860   26.081430

obc: Macroscopic polarization per unit cell along the lattice vectors (Bohr): 
obc:    7.255776    7.255776   21.767328

                     ====================================
                        Begin FC step =      1
                         displace atom 1
                         in direction 1 by -0.021167 Ang
                     ====================================

outcoor: Atomic coordinates (fractional):                   
    0.00389817   -0.00389817   -0.00389817   1       1  Si
    0.25000000    0.25000000    0.25000000   1       2  Si

superc: Internal auxiliary supercell:     5 x     5 x     5  =     125
superc: Number of atoms, orbitals, and projectors:    250   1000   2250

outcell: Unit cell vectors (Ang):
        0.000000    2.715000    2.715000
        2.715000    0.000000    2.715000
        2.715000    2.715000    0.000000

outcell: Cell vector modules (Ang)   :    3.839590    3.839590    3.839590
outcell: Cell angles (23,13,12) (deg):     60.0000     60.0000     60.0000
outcell: Cell volume (Ang**3)        :     40.0258
<dSpData1D:S at geom step 1
  <sparsity:sparsity for geom step 1
    nrows_g=8 nrows=5 sparsity=19.1875 nnzs=1228, refcount: 7>
  <dData1D:(new from dSpData1D) n=1228, refcount: 1>
refcount: 1>
new_DM -- step:     2
Re-using DM from previous geometries...
Number of DMs in history: 1
 DM extrapolation coefficients: 
1   1.00000
New DM after history re-use:
<dSpData2D:SpM extrapolated using coords
  <sparsity:sparsity for geom step 1
    nrows_g=8 nrows=5 sparsity=19.1875 nnzs=1228, refcount: 9>
  <dData2D:(temp array for extrapolation) n=1228 m=1, refcount: 1>
refcount: 1>
No. of atoms with KB's overlaping orbs in proc 0. Max # of overlaps:      17      56
New grid distribution:   1
           1       1:   12    1:   12    1:    6
           2       1:   12    1:   12    7:   12

InitMesh: MESH =    24 x    24 x    24 =       13824
InitMesh: (bp) =    12 x    12 x    12 =        1728
InitMesh: Mesh cutoff (required, used) =   130.000   161.974 Ry
ExtMesh (bp) on 0 =    64 x    64 x    58 =      237568
New grid distribution:   2
           1       1:   12    1:   12    1:    6
           2       1:   12    1:   12    7:   12
New grid distribution:   3
           1       1:   12    1:   12    1:    6
           2       1:   12    1:   12    7:   12
Setting up quadratic distribution...
ExtMesh (bp) on 0 =    64 x    64 x    58 =      237568
PhiOnMesh: Number of (b)points on node 0 =                  864
PhiOnMesh: nlist on node 0 =                24883

        iscf     Eharris(eV)        E_KS(eV)     FreeEng(eV)     dDmax    Ef(eV) dHmax(eV)
   scf:    1     -194.679948     -194.689318     -194.689318  0.019058 -1.349271  0.037791
   scf:    2     -194.689308     -194.689315     -194.689315  0.001003 -1.349112  0.002508
   scf:    3     -194.689318     -194.689318     -194.689318  0.000806 -1.349114  0.000415
   scf:    4     -194.689318     -194.689318     -194.689318  0.000118 -1.349113  0.000064
   scf:    5     -194.689318     -194.689318     -194.689318  0.000013 -1.349113  0.000043

SCF Convergence by DM+H criterion
max |DM_out - DM_in|         :     0.0000127472
max |H_out - H_in|      (eV) :     0.0000429442
SCF cycle converged after 5 iterations

Using DM_out to compute the final energy and forces
No. of atoms with KB's overlaping orbs in proc 0. Max # of overlaps:      17      56

siesta: E_KS(eV) =             -194.6893

siesta: Atomic forces (eV/Ang):
     1    0.785371   -0.000000   -0.000000
     2   -0.795796    0.000000    0.000000
----------------------------------------
   Tot   -0.010425   -0.000000   -0.000000
----------------------------------------
   Max    0.795796
   Res    0.456454    sqrt( Sum f_i^2 / 3N )
----------------------------------------
   Max    0.795796    constrained

Stress tensor Voigt[x,y,z,yz,xz,xy] (kbar):     -518.03     -518.41     -518.41       23.80       -0.00       -0.00
(Free)E + p*V (eV/cell)     -181.7416
Target enthalpy (eV/cell)     -194.6893

mulliken: Atomic and Orbital Populations:

Species: Si                  
Atom  Qatom  Qorb
               3s      3py     3pz     3px     
   1  4.000   1.000   1.000   1.000   1.000
   2  4.000   1.000   1.000   1.000   1.000

mulliken: Qtot =        8.000

                     ====================================
                        Begin FC step =      2
                         displace atom 1
                         in direction 1 by  0.021167 Ang
                     ====================================

outcoor: Atomic coordinates (fractional):                   
   -0.00389817    0.00389817    0.00389817   1       1  Si
    0.25000000    0.25000000    0.25000000   1       2  Si

superc: Internal auxiliary supercell:     5 x     5 x     5  =     125
superc: Number of atoms, orbitals, and projectors:    250   1000   2250

outcell: Unit cell vectors (Ang):
        0.000000    2.715000    2.715000
        2.715000    0.000000    2.715000
        2.715000    2.715000    0.000000

outcell: Cell vector modules (Ang)   :    3.839590    3.839590    3.839590
outcell: Cell angles (23,13,12) (deg):     60.0000     60.0000     60.0000
outcell: Cell volume (Ang**3)        :     40.0258
<dSpData1D:S at geom step 2
  <sparsity:sparsity for geom step 2
    nrows_g=8 nrows=5 sparsity=19.1875 nnzs=1228, refcount: 7>
  <dData1D:(new from dSpData1D) n=1228, refcount: 1>
refcount: 1>
new_DM -- step:     3
Re-using DM from previous geometries...
Number of DMs in history: 1
 DM extrapolation coefficients: 
1   1.00000
New DM after history re-use:
<dSpData2D:SpM extrapolated using coords
  <sparsity:sparsity for geom step 2
    nrows_g=8 nrows=5 sparsity=19.1875 nnzs=1228, refcount: 9>
  <dData2D:(temp array for extrapolation) n=1228 m=1, refcount: 1>
refcount: 1>
No. of atoms with KB's overlaping orbs in proc 0. Max # of overlaps:      17      56
New grid distribution:   1
           1       1:   12    1:   12    1:    6
           2       1:   12    1:   12    7:   12

InitMesh: MESH =    24 x    24 x    24 =       13824
InitMesh: (bp) =    12 x    12 x    12 =        1728
InitMesh: Mesh cutoff (required, used) =   130.000   161.974 Ry
ExtMesh (bp) on 0 =    64 x    64 x    58 =      237568
New grid distribution:   2
           1       1:   12    1:   12    1:    6
           2       1:   12    1:   12    7:   12
New grid distribution:   3
           1       1:   12    1:   12    1:    6
           2       1:   12    1:   12    7:   12
Setting up quadratic distribution...
ExtMesh (bp) on 0 =    64 x    64 x    58 =      237568
PhiOnMesh: Number of (b)points on node 0 =                  864
PhiOnMesh: nlist on node 0 =                24871

        iscf     Eharris(eV)        E_KS(eV)     FreeEng(eV)     dDmax    Ef(eV) dHmax(eV)
   scf:    1     -194.679948     -194.689318     -194.689318  0.019058 -1.349271  0.037791
   scf:    2     -194.689308     -194.689315     -194.689315  0.001003 -1.349112  0.002508
   scf:    3     -194.689318     -194.689318     -194.689318  0.000806 -1.349114  0.000415
   scf:    4     -194.689318     -194.689318     -194.689318  0.000118 -1.349113  0.000064
   scf:    5     -194.689318     -194.689318     -194.689318  0.000013 -1.349113  0.000043

SCF Convergence by DM+H criterion
max |DM_out - DM_in|         :     0.0000127472
max |H_out - H_in|      (eV) :     0.0000429442
SCF cycle converged after 5 iterations

Using DM_out to compute the final energy and forces
No. of atoms with KB's overlaping orbs in proc 0. Max # of overlaps:      17      56

siesta: E_KS(eV) =             -194.6893

siesta: Atomic forces (eV/Ang):
     1   -0.785371   -0.000000   -0.000000
     2    0.795797    0.000000    0.000000
----------------------------------------
   Tot    0.010426    0.000000    0.000000
----------------------------------------
   Max    0.795797
   Res    0.456454    sqrt( Sum f_i^2 / 3N )
----------------------------------------
   Max    0.795797    constrained

Stress tensor Voigt[x,y,z,yz,xz,xy] (kbar):     -518.03     -518.41     -518.41      -23.80       -0.00       -0.00
(Free)E + p*V (eV/cell)     -181.7416
Target enthalpy (eV/cell)     -194.6893

mulliken: Atomic and Orbital Populations:

Species: Si                  
Atom  Qatom  Qorb
               3s      3py     3pz     3px     
   1  4.000   1.000   1.000   1.000   1.000
   2  4.000   1.000   1.000   1.000   1.000

mulliken: Qtot =        8.000

siesta: Calculating polarization. 

siesta: Macroscopic polarization per unit cell (a.u.):
siesta: Along the lattice vectors      7.255893   21.767242   21.767242
siesta: Along cartesian directions    30.783529   20.522456   20.522456

siesta: Macroscopic polarization per unit cell (Debye):
siesta: Along the lattice vectors     18.442652   55.326849   55.326849
siesta: Along cartesian directions    78.243981   52.162915   52.162915

obc: Macroscopic polarization per unit cell along the lattice vectors (Bohr): 
obc:    7.255893   21.767242   21.767242

                     ====================================
                        Begin FC step =      3
                         displace atom 1
                         in direction 2 by -0.021167 Ang
                     ====================================

outcoor: Atomic coordinates (fractional):                   
   -0.00389817    0.00389817   -0.00389817   1       1  Si
    0.25000000    0.25000000    0.25000000   1       2  Si

superc: Internal auxiliary supercell:     5 x     5 x     5  =     125
superc: Number of atoms, orbitals, and projectors:    250   1000   2250

outcell: Unit cell vectors (Ang):
        0.000000    2.715000    2.715000
        2.715000    0.000000    2.715000
        2.715000    2.715000    0.000000

outcell: Cell vector modules (Ang)   :    3.839590    3.839590    3.839590
outcell: Cell angles (23,13,12) (deg):     60.0000     60.0000     60.0000
outcell: Cell volume (Ang**3)        :     40.0258
<dSpData1D:S at geom step 3
  <sparsity:sparsity for geom step 3
    nrows_g=8 nrows=5 sparsity=19.1875 nnzs=1228, refcount: 7>
  <dData1D:(new from dSpData1D) n=1228, refcount: 1>
refcount: 1>
new_DM -- step:     4
Re-using DM from previous geometries...
Number of DMs in history: 1
 DM extrapolation coefficients: 
1   1.00000
New DM after history re-use:
<dSpData2D:SpM extrapolated using coords
  <sparsity:sparsity for geom step 3
    nrows_g=8 nrows=5 sparsity=19.1875 nnzs=1228, refcount: 9>
  <dData2D:(temp array for extrapolation) n=1228 m=1, refcount: 1>
refcount: 1>
No. of atoms with KB's overlaping orbs in proc 0. Max # of overlaps:      17      56
New grid distribution:   1
           1       1:   12    1:   12    1:    6
           2       1:   12    1:   12    7:   12

InitMesh: MESH =    24 x    24 x    24 =       13824
InitMesh: (bp) =    12 x    12 x    12 =        1728
InitMesh: Mesh cutoff (required, used) =   130.000   161.974 Ry
ExtMesh (bp) on 0 =    64 x    64 x    58 =      237568
New grid distribution:   2
           1       1:   12    1:   12    1:    6
           2       1:   12    1:   12    7:   12
New grid distribution:   3
           1       1:   12    1:   12    1:    6
           2       1:   12    1:   12    7:   12
Setting up quadratic distribution...
ExtMesh (bp) on 0 =    64 x    64 x    58 =      237568
PhiOnMesh: Number of (b)points on node 0 =                  864
PhiOnMesh: nlist on node 0 =                24883

        iscf     Eharris(eV)        E_KS(eV)     FreeEng(eV)     dDmax    Ef(eV) dHmax(eV)
   scf:    1     -194.679948     -194.689318     -194.689318  0.019058 -1.349271  0.037791
   scf:    2     -194.689308     -194.689315     -194.689315  0.001003 -1.349112  0.002508
   scf:    3     -194.689318     -194.689318     -194.689318  0.000806 -1.349114  0.000415
   scf:    4     -194.689318     -194.689318     -194.689318  0.000118 -1.349113  0.000064
   scf:    5     -194.689318     -194.689318     -194.689318  0.000013 -1.349113  0.000043

SCF Convergence by DM+H criterion
max |DM_out - DM_in|         :     0.0000127472
max |H_out - H_in|      (eV) :     0.0000429442
SCF cycle converged after 5 iterations

Using DM_out to compute the final energy and forces
No. of atoms with KB's overlaping orbs in proc 0. Max # of overlaps:      17      56

siesta: E_KS(eV) =             -194.6893

siesta: Atomic forces (eV/Ang):
     1   -0.000000    0.785371   -0.000000
     2    0.000000   -0.795796    0.000000
----------------------------------------
   Tot   -0.000000   -0.010425   -0.000000
----------------------------------------
   Max    0.795796
   Res    0.456454    sqrt( Sum f_i^2 / 3N )
----------------------------------------
   Max    0.795796    constrained

Stress tensor Voigt[x,y,z,yz,xz,xy] (kbar):     -518.41     -518.03     -518.41       -0.00       23.80       -0.00
(Free)E + p*V (eV/cell)     -181.7416
Target enthalpy (eV/cell)     -194.6893

mulliken: Atomic and Orbital Populations:

Species: Si                  
Atom  Qatom  Qorb
               3s      3py     3pz     3px     
   1  4.000   1.000   1.000   1.000   1.000
   2  4.000   1.000   1.000   1.000   1.000

mulliken: Qtot =        8.000

                     ====================================
                        Begin FC step =      4
                         displace atom 1
                         in direction 2 by  0.021167 Ang
                     ====================================

outcoor: Atomic coordinates (fractional):                   
    0.00389817   -0.00389817    0.00389817   1       1  Si
    0.25000000    0.25000000    0.25000000   1       2  Si

superc: Internal auxiliary supercell:     5 x     5 x     5  =     125
superc: Number of atoms, orbitals, and projectors:    250   1000   2250

outcell: Unit cell vectors (Ang):
        0.000000    2.715000    2.715000
        2.715000    0.000000    2.715000
        2.715000    2.715000    0.000000

outcell: Cell vector modules (Ang)   :    3.839590    3.839590    3.839590
outcell: Cell angles (23,13,12) (deg):     60.0000     60.0000     60.0000
outcell: Cell volume (Ang**3)        :     40.0258
<dSpData1D:S at geom step 4
  <sparsity:sparsity for geom step 4
    nrows_g=8 nrows=5 sparsity=19.1875 nnzs=1228, refcount: 7>
  <dData1D:(new from dSpData1D) n=1228, refcount: 1>
refcount: 1>
new_DM -- step:     5
Re-using DM from previous geometries...
Number of DMs in history: 1
 DM extrapolation coefficients: 
1   1.00000
New DM after history re-use:
<dSpData2D:SpM extrapolated using coords
  <sparsity:sparsity for geom step 4
    nrows_g=8 nrows=5 sparsity=19.1875 nnzs=1228, refcount: 9>
  <dData2D:(temp array for extrapolation) n=1228 m=1, refcount: 1>
refcount: 1>
No. of atoms with KB's overlaping orbs in proc 0. Max # of overlaps:      17      56
New grid distribution:   1
           1       1:   12    1:   12    1:    6
           2       1:   12    1:   12    7:   12

InitMesh: MESH =    24 x    24 x    24 =       13824
InitMesh: (bp) =    12 x    12 x    12 =        1728
InitMesh: Mesh cutoff (required, used) =   130.000   161.974 Ry
ExtMesh (bp) on 0 =    64 x    64 x    58 =      237568
New grid distribution:   2
           1       1:   12    1:   12    1:    6
           2       1:   12    1:   12    7:   12
New grid distribution:   3
           1       1:   12    1:   12    1:    6
           2       1:   12    1:   12    7:   12
Setting up quadratic distribution...
ExtMesh (bp) on 0 =    64 x    64 x    58 =      237568
PhiOnMesh: Number of (b)points on node 0 =                  864
PhiOnMesh: nlist on node 0 =                24871

        iscf     Eharris(eV)        E_KS(eV)     FreeEng(eV)     dDmax    Ef(eV) dHmax(eV)
   scf:    1     -194.679948     -194.689318     -194.689318  0.019058 -1.349271  0.037791
   scf:    2     -194.689308     -194.689315     -194.689315  0.001003 -1.349112  0.002508
   scf:    3     -194.689318     -194.689318     -194.689318  0.000806 -1.349114  0.000415
   scf:    4     -194.689318     -194.689318     -194.689318  0.000118 -1.349113  0.000064
   scf:    5     -194.689318     -194.689318     -194.689318  0.000013 -1.349113  0.000043

SCF Convergence by DM+H criterion
max |DM_out - DM_in|         :     0.0000127472
max |H_out - H_in|      (eV) :     0.0000429442
SCF cycle converged after 5 iterations

Using DM_out to compute the final energy and forces
No. of atoms with KB's overlaping orbs in proc 0. Max # of overlaps:      17      56

siesta: E_KS(eV) =             -194.6893

siesta: Atomic forces (eV/Ang):
     1   -0.000000   -0.785371   -0.000000
     2    0.000000    0.795797    0.000000
----------------------------------------
   Tot    0.000000    0.010426    0.000000
----------------------------------------
   Max    0.795797
   Res    0.456454    sqrt( Sum f_i^2 / 3N )
----------------------------------------
   Max    0.795797    constrained

Stress tensor Voigt[x,y,z,yz,xz,xy] (kbar):     -518.41     -518.03     -518.41       -0.00      -23.80       -0.00
(Free)E + p*V (eV/cell)     -181.7416
Target enthalpy (eV/cell)     -194.6893

mulliken: Atomic and Orbital Populations:

Species: Si                  
Atom  Qatom  Qorb
               3s      3py     3pz     3px     
   1  4.000   1.000   1.000   1.000   1.000
   2  4.000   1.000   1.000   1.000   1.000

mulliken: Qtot =        8.000

siesta: Calculating polarization. 

siesta: Macroscopic polarization per unit cell (a.u.):
siesta: Along the lattice vectors     21.767242    7.255893   21.767242
siesta: Along cartesian directions    20.522456   30.783529   20.522456

siesta: Macroscopic polarization per unit cell (Debye):
siesta: Along the lattice vectors     55.326849   18.442652   55.326849
siesta: Along cartesian directions    52.162915   78.243981   52.162915

obc: Macroscopic polarization per unit cell along the lattice vectors (Bohr): 
obc:   21.767242    7.255893   21.767242

                     ====================================
                        Begin FC step =      5
                         displace atom 1
                         in direction 3 by -0.021167 Ang
                     ====================================

outcoor: Atomic coordinates (fractional):                   
   -0.00389817   -0.00389817    0.00389817   1       1  Si
    0.25000000    0.25000000    0.25000000   1       2  Si

superc: Internal auxiliary supercell:     5 x     5 x     5  =     125
superc: Number of atoms, orbitals, and projectors:    250   1000   2250

outcell: Unit cell vectors (Ang):
        0.000000    2.715000    2.715000
        2.715000    0.000000    2.715000
        2.715000    2.715000    0.000000

outcell: Cell vector modules (Ang)   :    3.839590    3.839590    3.839590
outcell: Cell angles (23,13,12) (deg):     60.0000     60.0000     60.0000
outcell: Cell volume (Ang**3)        :     40.0258
<dSpData1D:S at geom step 5
  <sparsity:sparsity for geom step 5
    nrows_g=8 nrows=5 sparsity=19.1875 nnzs=1228, refcount: 7>
  <dData1D:(new from dSpData1D) n=1228, refcount: 1>
refcount: 1>
new_DM -- step:     6
Re-using DM from previous geometries...
Number of DMs in history: 1
 DM extrapolation coefficients: 
1   1.00000
New DM after history re-use:
<dSpData2D:SpM extrapolated using coords
  <sparsity:sparsity for geom step 5
    nrows_g=8 nrows=5 sparsity=19.1875 nnzs=1228, refcount: 9>
  <dData2D:(temp array for extrapolation) n=1228 m=1, refcount: 1>
refcount: 1>
No. of atoms with KB's overlaping orbs in proc 0. Max # of overlaps:      17      56
New grid distribution:   1
           1       1:   12    1:   12    1:    6
           2       1:   12    1:   12    7:   12

InitMesh: MESH =    24 x    24 x    24 =       13824
InitMesh: (bp) =    12 x    12 x    12 =        1728
InitMesh: Mesh cutoff (required, used) =   130.000   161.974 Ry
ExtMesh (bp) on 0 =    64 x    64 x    58 =      237568
New grid distribution:   2
           1       1:   12    1:   12    1:    6
           2       1:   12    1:   12    7:   12
New grid distribution:   3
           1       1:   12    1:   12    1:    6
           2       1:   12    1:   12    7:   12
Setting up quadratic distribution...
ExtMesh (bp) on 0 =    64 x    64 x    58 =      237568
PhiOnMesh: Number of (b)points on node 0 =                  864
PhiOnMesh: nlist on node 0 =                24845

        iscf     Eharris(eV)        E_KS(eV)     FreeEng(eV)     dDmax    Ef(eV) dHmax(eV)
   scf:    1     -194.679948     -194.689318     -194.689318  0.019058 -1.349271  0.037791
   scf:    2     -194.689308     -194.689315     -194.689315  0.001003 -1.349112  0.002508
   scf:    3     -194.689318     -194.689318     -194.689318  0.000806 -1.349114  0.000415
   scf:    4     -194.689318     -194.689318     -194.689318  0.000118 -1.349113  0.000064
   scf:    5     -194.689318     -194.689318     -194.689318  0.000013 -1.349113  0.000043

SCF Convergence by DM+H criterion
max |DM_out - DM_in|         :     0.0000127472
max |H_out - H_in|      (eV) :     0.0000429442
SCF cycle converged after 5 iterations

Using DM_out to compute the final energy and forces
No. of atoms with KB's overlaping orbs in proc 0. Max # of overlaps:      17      56

siesta: E_KS(eV) =             -194.6893

siesta: Atomic forces (eV/Ang):
     1   -0.000000   -0.000000    0.785371
     2    0.000000    0.000000   -0.795796
----------------------------------------
   Tot   -0.000000   -0.000000   -0.010425
----------------------------------------
   Max    0.795796
   Res    0.456454    sqrt( Sum f_i^2 / 3N )
----------------------------------------
   Max    0.795796    constrained

Stress tensor Voigt[x,y,z,yz,xz,xy] (kbar):     -518.41     -518.41     -518.03       -0.00       -0.00       23.80
(Free)E + p*V (eV/cell)     -181.7416
Target enthalpy (eV/cell)     -194.6893

mulliken: Atomic and Orbital Populations:

Species: Si                  
Atom  Qatom  Qorb
               3s      3py     3pz     3px     
   1  4.000   1.000   1.000   1.000   1.000
   2  4.000   1.000   1.000   1.000   1.000

mulliken: Qtot =        8.000

                     ====================================
                        Begin FC step =      6
                         displace atom 1
                         in direction 3 by  0.021167 Ang
                     ====================================

outcoor: Atomic coordinates (fractional):                   
    0.00389817    0.00389817   -0.00389817   1       1  Si
    0.25000000    0.25000000    0.25000000   1       2  Si

superc: Internal auxiliary supercell:     5 x     5 x     5  =     125
superc: Number of atoms, orbitals, and projectors:    250   1000   2250

outcell: Unit cell vectors (Ang):
        0.000000    2.715000    2.715000
        2.715000    0.000000    2.715000
        2.715000    2.715000    0.000000

outcell: Cell vector modules (Ang)   :    3.839590    3.839590    3.839590
outcell: Cell angles (23,13,12) (deg):     60.0000     60.0000     60.0000
outcell: Cell volume (Ang**3)        :     40.0258
<dSpData1D:S at geom step 6
  <sparsity:sparsity for geom step 6
    nrows_g=8 nrows=5 sparsity=19.1875 nnzs=1228, refcount: 7>
  <dData1D:(new from dSpData1D) n=1228, refcount: 1>
refcount: 1>
new_DM -- step:     7
Re-using DM from previous geometries...
Number of DMs in history: 1
 DM extrapolation coefficients: 
1   1.00000
New DM after history re-use:
<dSpData2D:SpM extrapolated using coords
  <sparsity:sparsity for geom step 6
    nrows_g=8 nrows=5 sparsity=19.1875 nnzs=1228, refcount: 9>
  <dData2D:(temp array for extrapolation) n=1228 m=1, refcount: 1>
refcount: 1>
No. of atoms with KB's overlaping orbs in proc 0. Max # of overlaps:      17      56
New grid distribution:   1
           1       1:   12    1:   12    1:    6
           2       1:   12    1:   12    7:   12

InitMesh: MESH =    24 x    24 x    24 =       13824
InitMesh: (bp) =    12 x    12 x    12 =        1728
InitMesh: Mesh cutoff (required, used) =   130.000   161.974 Ry
ExtMesh (bp) on 0 =    64 x    64 x    58 =      237568
New grid distribution:   2
           1       1:   12    1:   12    1:    6
           2       1:   12    1:   12    7:   12
New grid distribution:   3
           1       1:   12    1:   12    1:    6
           2       1:   12    1:   12    7:   12
Setting up quadratic distribution...
ExtMesh (bp) on 0 =    64 x    64 x    58 =      237568
PhiOnMesh: Number of (b)points on node 0 =                  864
PhiOnMesh: nlist on node 0 =                24908

        iscf     Eharris(eV)        E_KS(eV)     FreeEng(eV)     dDmax    Ef(eV) dHmax(eV)
   scf:    1     -194.679948     -194.689318     -194.689318  0.019058 -1.349271  0.037791
   scf:    2     -194.689308     -194.689315     -194.689315  0.001003 -1.349112  0.002508
   scf:    3     -194.689318     -194.689318     -194.689318  0.000806 -1.349114  0.000415
   scf:    4     -194.689318     -194.689318     -194.689318  0.000118 -1.349113  0.000064
   scf:    5     -194.689318     -194.689318     -194.689318  0.000013 -1.349113  0.000043

SCF Convergence by DM+H criterion
max |DM_out - DM_in|         :     0.0000127472
max |H_out - H_in|      (eV) :     0.0000429442
SCF cycle converged after 5 iterations

Using DM_out to compute the final energy and forces
No. of atoms with KB's overlaping orbs in proc 0. Max # of overlaps:      17      56

siesta: E_KS(eV) =             -194.6893

siesta: Atomic forces (eV/Ang):
     1   -0.000000   -0.000000   -0.785371
     2    0.000000    0.000000    0.795797
----------------------------------------
   Tot    0.000000    0.000000    0.010426
----------------------------------------
   Max    0.795797
   Res    0.456454    sqrt( Sum f_i^2 / 3N )
----------------------------------------
   Max    0.795797    constrained

Stress tensor Voigt[x,y,z,yz,xz,xy] (kbar):     -518.41     -518.41     -518.03       -0.00       -0.00      -23.80
(Free)E + p*V (eV/cell)     -181.7416
Target enthalpy (eV/cell)     -194.6893

mulliken: Atomic and Orbital Populations:

Species: Si                  
Atom  Qatom  Qorb
               3s      3py     3pz     3px     
   1  4.000   1.000   1.000   1.000   1.000
   2  4.000   1.000   1.000   1.000   1.000

mulliken: Qtot =        8.000

siesta: Calculating polarization. 

siesta: Macroscopic polarization per unit cell (a.u.):
siesta: Along the lattice vectors     21.767242   21.767242    7.255893
siesta: Along cartesian directions    20.522456   20.522456   30.783529

siesta: Macroscopic polarization per unit cell (Debye):
siesta: Along the lattice vectors     55.326849   55.326849   18.442652
siesta: Along cartesian directions    52.162915   52.162915   78.243981

obc: Macroscopic polarization per unit cell along the lattice vectors (Bohr): 
obc:   21.767242   21.767242    7.255893

                     ====================================
                        Begin FC step =      7
                         displace atom 2
                         in direction 1 by -0.021167 Ang
                     ====================================

outcoor: Atomic coordinates (fractional):                   
    0.00000000    0.00000000    0.00000000   1       1  Si
    0.25389817    0.24610183    0.24610183   1       2  Si

superc: Internal auxiliary supercell:     5 x     5 x     5  =     125
superc: Number of atoms, orbitals, and projectors:    250   1000   2250

outcell: Unit cell vectors (Ang):
        0.000000    2.715000    2.715000
        2.715000    0.000000    2.715000
        2.715000    2.715000    0.000000

outcell: Cell vector modules (Ang)   :    3.839590    3.839590    3.839590
outcell: Cell angles (23,13,12) (deg):     60.0000     60.0000     60.0000
outcell: Cell volume (Ang**3)        :     40.0258
<dSpData1D:S at geom step 7
  <sparsity:sparsity for geom step 7
    nrows_g=8 nrows=5 sparsity=19.1875 nnzs=1228, refcount: 7>
  <dData1D:(new from dSpData1D) n=1228, refcount: 1>
refcount: 1>
new_DM -- step:     8
Re-using DM from previous geometries...
Number of DMs in history: 1
 DM extrapolation coefficients: 
1   1.00000
New DM after history re-use:
<dSpData2D:SpM extrapolated using coords
  <sparsity:sparsity for geom step 7
    nrows_g=8 nrows=5 sparsity=19.1875 nnzs=1228, refcount: 9>
  <dData2D:(temp array for extrapolation) n=1228 m=1, refcount: 1>
refcount: 1>
No. of atoms with KB's overlaping orbs in proc 0. Max # of overlaps:      17      56
New grid distribution:   1
           1       1:   12    1:   12    1:    6
           2       1:   12    1:   12    7:   12

InitMesh: MESH =    24 x    24 x    24 =       13824
InitMesh: (bp) =    12 x    12 x    12 =        1728
InitMesh: Mesh cutoff (required, used) =   130.000   161.974 Ry
ExtMesh (bp) on 0 =    64 x    64 x    58 =      237568
New grid distribution:   2
           1       1:   12    1:   12    1:    6
           2       1:   12    1:   12    7:   12
New grid distribution:   3
           1       1:   12    1:   12    1:    6
           2       1:   12    1:   12    7:   12
Setting up quadratic distribution...
ExtMesh (bp) on 0 =    64 x    64 x    58 =      237568
PhiOnMesh: Number of (b)points on node 0 =                  864
PhiOnMesh: nlist on node 0 =                24862

        iscf     Eharris(eV)        E_KS(eV)     FreeEng(eV)     dDmax    Ef(eV) dHmax(eV)
   scf:    1     -194.679948     -194.689318     -194.689318  0.019058 -1.349271  0.037791
   scf:    2     -194.689308     -194.689315     -194.689315  0.001003 -1.349112  0.002508
   scf:    3     -194.689318     -194.689318     -194.689318  0.000806 -1.349114  0.000415
   scf:    4     -194.689318     -194.689318     -194.689318  0.000118 -1.349113  0.000064
   scf:    5     -194.689318     -194.689318     -194.689318  0.000013 -1.349113  0.000043

SCF Convergence by DM+H criterion
max |DM_out - DM_in|         :     0.0000127472
max |H_out - H_in|      (eV) :     0.0000429442
SCF cycle converged after 5 iterations

Using DM_out to compute the final energy and forces
No. of atoms with KB's overlaping orbs in proc 0. Max # of overlaps:      17      56

siesta: E_KS(eV) =             -194.6893

siesta: Atomic forces (eV/Ang):
     1   -0.795797   -0.000000   -0.000000
     2    0.785371    0.000000    0.000000
----------------------------------------
   Tot   -0.010426   -0.000000   -0.000000
----------------------------------------
   Max    0.795797
   Res    0.456454    sqrt( Sum f_i^2 / 3N )
----------------------------------------
   Max    0.795797    constrained

Stress tensor Voigt[x,y,z,yz,xz,xy] (kbar):     -518.03     -518.41     -518.41      -23.80       -0.00       -0.00
(Free)E + p*V (eV/cell)     -181.7416
Target enthalpy (eV/cell)     -194.6893

mulliken: Atomic and Orbital Populations:

Species: Si                  
Atom  Qatom  Qorb
               3s      3py     3pz     3px     
   1  4.000   1.000   1.000   1.000   1.000
   2  4.000   1.000   1.000   1.000   1.000

mulliken: Qtot =        8.000

                     ====================================
                        Begin FC step =      8
                         displace atom 2
                         in direction 1 by  0.021167 Ang
                     ====================================

outcoor: Atomic coordinates (fractional):                   
    0.00000000    0.00000000    0.00000000   1       1  Si
    0.24610183    0.25389817    0.25389817   1       2  Si

superc: Internal auxiliary supercell:     5 x     5 x     5  =     125
superc: Number of atoms, orbitals, and projectors:    250   1000   2250

outcell: Unit cell vectors (Ang):
        0.000000    2.715000    2.715000
        2.715000    0.000000    2.715000
        2.715000    2.715000    0.000000

outcell: Cell vector modules (Ang)   :    3.839590    3.839590    3.839590
outcell: Cell angles (23,13,12) (deg):     60.0000     60.0000     60.0000
outcell: Cell volume (Ang**3)        :     40.0258
<dSpData1D:S at geom step 8
  <sparsity:sparsity for geom step 8
    nrows_g=8 nrows=5 sparsity=19.1875 nnzs=1228, refcount: 7>
  <dData1D:(new from dSpData1D) n=1228, refcount: 1>
refcount: 1>
new_DM -- step:     9
Re-using DM from previous geometries...
Number of DMs in history: 1
 DM extrapolation coefficients: 
1   1.00000
New DM after history re-use:
<dSpData2D:SpM extrapolated using coords
  <sparsity:sparsity for geom step 8
    nrows_g=8 nrows=5 sparsity=19.1875 nnzs=1228, refcount: 9>
  <dData2D:(temp array for extrapolation) n=1228 m=1, refcount: 1>
refcount: 1>
No. of atoms with KB's overlaping orbs in proc 0. Max # of overlaps:      17      56
New grid distribution:   1
           1       1:   12    1:   12    1:    6
           2       1:   12    1:   12    7:   12

InitMesh: MESH =    24 x    24 x    24 =       13824
InitMesh: (bp) =    12 x    12 x    12 =        1728
InitMesh: Mesh cutoff (required, used) =   130.000   161.974 Ry
ExtMesh (bp) on 0 =    64 x    64 x    58 =      237568
New grid distribution:   2
           1       1:   12    1:   12    1:    6
           2       1:   12    1:   12    7:   12
New grid distribution:   3
           1       1:   12    1:   12    1:    6
           2       1:   12    1:   12    7:   12
Setting up quadratic distribution...
ExtMesh (bp) on 0 =    64 x    64 x    58 =      237568
PhiOnMesh: Number of (b)points on node 0 =                  864
PhiOnMesh: nlist on node 0 =                24899

        iscf     Eharris(eV)        E_KS(eV)     FreeEng(eV)     dDmax    Ef(eV) dHmax(eV)
   scf:    1     -194.679948     -194.689318     -194.689318  0.019058 -1.349271  0.037791
   scf:    2     -194.689308     -194.689315     -194.689315  0.001003 -1.349112  0.002508
   scf:    3     -194.689318     -194.689318     -194.689318  0.000806 -1.349114  0.000415
   scf:    4     -194.689318     -194.689318     -194.689318  0.000118 -1.349113  0.000064
   scf:    5     -194.689318     -194.689318     -194.689318  0.000013 -1.349113  0.000043

SCF Convergence by DM+H criterion
max |DM_out - DM_in|         :     0.0000127472
max |H_out - H_in|      (eV) :     0.0000429442
SCF cycle converged after 5 iterations

Using DM_out to compute the final energy and forces
No. of atoms with KB's overlaping orbs in proc 0. Max # of overlaps:      17      56

siesta: E_KS(eV) =             -194.6893

siesta: Atomic forces (eV/Ang):
     1    0.795796   -0.000000   -0.000000
     2   -0.785371    0.000000    0.000000
----------------------------------------
   Tot    0.010425    0.000000    0.000000
----------------------------------------
   Max    0.795796
   Res    0.456454    sqrt( Sum f_i^2 / 3N )
----------------------------------------
   Max    0.795796    constrained

Stress tensor Voigt[x,y,z,yz,xz,xy] (kbar):     -518.03     -518.41     -518.41       23.80       -0.00       -0.00
(Free)E + p*V (eV/cell)     -181.7416
Target enthalpy (eV/cell)     -194.6893

mulliken: Atomic and Orbital Populations:

Species: Si                  
Atom  Qatom  Qorb
               3s      3py     3pz     3px     
   1  4.000   1.000   1.000   1.000   1.000
   2  4.000   1.000   1.000   1.000   1.000

mulliken: Qtot =        8.000

siesta: Calculating polarization. 

siesta: Macroscopic polarization per unit cell (a.u.):
siesta: Along the lattice vectors      7.255862   21.767212   21.767212
siesta: Along cartesian directions    30.783486   20.522412   20.522412

siesta: Macroscopic polarization per unit cell (Debye):
siesta: Along the lattice vectors     18.442575   55.326771   55.326771
siesta: Along cartesian directions    78.243871   52.162805   52.162805

obc: Macroscopic polarization per unit cell along the lattice vectors (Bohr): 
obc:    7.255862   21.767212   21.767212

                     ====================================
                        Begin FC step =      9
                         displace atom 2
                         in direction 2 by -0.021167 Ang
                     ====================================

outcoor: Atomic coordinates (fractional):                   
    0.00000000    0.00000000    0.00000000   1       1  Si
    0.24610183    0.25389817    0.24610183   1       2  Si

superc: Internal auxiliary supercell:     5 x     5 x     5  =     125
superc: Number of atoms, orbitals, and projectors:    250   1000   2250

outcell: Unit cell vectors (Ang):
        0.000000    2.715000    2.715000
        2.715000    0.000000    2.715000
        2.715000    2.715000    0.000000

outcell: Cell vector modules (Ang)   :    3.839590    3.839590    3.839590
outcell: Cell angles (23,13,12) (deg):     60.0000     60.0000     60.0000
outcell: Cell volume (Ang**3)        :     40.0258
<dSpData1D:S at geom step 9
  <sparsity:sparsity for geom step 9
    nrows_g=8 nrows=5 sparsity=19.1875 nnzs=1228, refcount: 7>
  <dData1D:(new from dSpData1D) n=1228, refcount: 1>
refcount: 1>
new_DM -- step:    10
Re-using DM from previous geometries...
Number of DMs in history: 1
 DM extrapolation coefficients: 
1   1.00000
New DM after history re-use:
<dSpData2D:SpM extrapolated using coords
  <sparsity:sparsity for geom step 9
    nrows_g=8 nrows=5 sparsity=19.1875 nnzs=1228, refcount: 9>
  <dData2D:(temp array for extrapolation) n=1228 m=1, refcount: 1>
refcount: 1>
No. of atoms with KB's overlaping orbs in proc 0. Max # of overlaps:      17      56
New grid distribution:   1
           1       1:   12    1:   12    1:    6
           2       1:   12    1:   12    7:   12

InitMesh: MESH =    24 x    24 x    24 =       13824
InitMesh: (bp) =    12 x    12 x    12 =        1728
InitMesh: Mesh cutoff (required, used) =   130.000   161.974 Ry
ExtMesh (bp) on 0 =    64 x    64 x    58 =      237568
New grid distribution:   2
           1       1:   12    1:   12    1:    6
           2       1:   12    1:   12    7:   12
New grid distribution:   3
           1       1:   12    1:   12    1:    6
           2       1:   12    1:   12    7:   12
Setting up quadratic distribution...
ExtMesh (bp) on 0 =    64 x    64 x    58 =      237568
PhiOnMesh: Number of (b)points on node 0 =                  864
PhiOnMesh: nlist on node 0 =                24862

        iscf     Eharris(eV)        E_KS(eV)     FreeEng(eV)     dDmax    Ef(eV) dHmax(eV)
   scf:    1     -194.679948     -194.689318     -194.689318  0.019058 -1.349271  0.037791
   scf:    2     -194.689308     -194.689315     -194.689315  0.001003 -1.349112  0.002508
   scf:    3     -194.689318     -194.689318     -194.689318  0.000806 -1.349114  0.000415
   scf:    4     -194.689318     -194.689318     -194.689318  0.000118 -1.349113  0.000064
   scf:    5     -194.689318     -194.689318     -194.689318  0.000013 -1.349113  0.000043

SCF Convergence by DM+H criterion
max |DM_out - DM_in|         :     0.0000127472
max |H_out - H_in|      (eV) :     0.0000429442
SCF cycle converged after 5 iterations

Using DM_out to compute the final energy and forces
No. of atoms with KB's overlaping orbs in proc 0. Max # of overlaps:      17      56

siesta: E_KS(eV) =             -194.6893

siesta: Atomic forces (eV/Ang):
     1   -0.000000   -0.795797   -0.000000
     2    0.000000    0.785371    0.000000
----------------------------------------
   Tot   -0.000000   -0.010426   -0.000000
----------------------------------------
   Max    0.795797
   Res    0.456454    sqrt( Sum f_i^2 / 3N )
----------------------------------------
   Max    0.795797    constrained

Stress tensor Voigt[x,y,z,yz,xz,xy] (kbar):     -518.41     -518.03     -518.41       -0.00      -23.80       -0.00
(Free)E + p*V (eV/cell)     -181.7416
Target enthalpy (eV/cell)     -194.6893

mulliken: Atomic and Orbital Populations:

Species: Si                  
Atom  Qatom  Qorb
               3s      3py     3pz     3px     
   1  4.000   1.000   1.000   1.000   1.000
   2  4.000   1.000   1.000   1.000   1.000

mulliken: Qtot =        8.000

                     ====================================
                        Begin FC step =     10
                         displace atom 2
                         in direction 2 by  0.021167 Ang
                     ====================================

outcoor: Atomic coordinates (fractional):                   
    0.00000000    0.00000000    0.00000000   1       1  Si
    0.25389817    0.24610183    0.25389817   1       2  Si

superc: Internal auxiliary supercell:     5 x     5 x     5  =     125
superc: Number of atoms, orbitals, and projectors:    250   1000   2250

outcell: Unit cell vectors (Ang):
        0.000000    2.715000    2.715000
        2.715000    0.000000    2.715000
        2.715000    2.715000    0.000000

outcell: Cell vector modules (Ang)   :    3.839590    3.839590    3.839590
outcell: Cell angles (23,13,12) (deg):     60.0000     60.0000     60.0000
outcell: Cell volume (Ang**3)        :     40.0258
<dSpData1D:S at geom step 10
  <sparsity:sparsity for geom step 10
    nrows_g=8 nrows=5 sparsity=19.1875 nnzs=1228, refcount: 7>
  <dData1D:(new from dSpData1D) n=1228, refcount: 1>
refcount: 1>
new_DM -- step:    11
Re-using DM from previous geometries...
Number of DMs in history: 1
 DM extrapolation coefficients: 
1   1.00000
New DM after history re-use:
<dSpData2D:SpM extrapolated using coords
  <sparsity:sparsity for geom step 10
    nrows_g=8 nrows=5 sparsity=19.1875 nnzs=1228, refcount: 9>
  <dData2D:(temp array for extrapolation) n=1228 m=1, refcount: 1>
refcount: 1>
No. of atoms with KB's overlaping orbs in proc 0. Max # of overlaps:      17      56
New grid distribution:   1
           1       1:   12    1:   12    1:    6
           2       1:   12    1:   12    7:   12

InitMesh: MESH =    24 x    24 x    24 =       13824
InitMesh: (bp) =    12 x    12 x    12 =        1728
InitMesh: Mesh cutoff (required, used) =   130.000   161.974 Ry
ExtMesh (bp) on 0 =    64 x    64 x    58 =      237568
New grid distribution:   2
           1       1:   12    1:   12    1:    6
           2       1:   12    1:   12    7:   12
New grid distribution:   3
           1       1:   12    1:   12    1:    6
           2       1:   12    1:   12    7:   12
Setting up quadratic distribution...
ExtMesh (bp) on 0 =    64 x    64 x    58 =      237568
PhiOnMesh: Number of (b)points on node 0 =                  864
PhiOnMesh: nlist on node 0 =                24899

        iscf     Eharris(eV)        E_KS(eV)     FreeEng(eV)     dDmax    Ef(eV) dHmax(eV)
   scf:    1     -194.679948     -194.689318     -194.689318  0.019058 -1.349271  0.037791
   scf:    2     -194.689308     -194.689315     -194.689315  0.001003 -1.349112  0.002508
   scf:    3     -194.689318     -194.689318     -194.689318  0.000806 -1.349114  0.000415
   scf:    4     -194.689318     -194.689318     -194.689318  0.000118 -1.349113  0.000064
   scf:    5     -194.689318     -194.689318     -194.689318  0.000013 -1.349113  0.000043

SCF Convergence by DM+H criterion
max |DM_out - DM_in|         :     0.0000127472
max |H_out - H_in|      (eV) :     0.0000429442
SCF cycle converged after 5 iterations

Using DM_out to compute the final energy and forces
No. of atoms with KB's overlaping orbs in proc 0. Max # of overlaps:      17      56

siesta: E_KS(eV) =             -194.6893

siesta: Atomic forces (eV/Ang):
     1   -0.000000    0.795796   -0.000000
     2    0.000000   -0.785371    0.000000
----------------------------------------
   Tot    0.000000    0.010425    0.000000
----------------------------------------
   Max    0.795796
   Res    0.456454    sqrt( Sum f_i^2 / 3N )
----------------------------------------
   Max    0.795796    constrained

Stress tensor Voigt[x,y,z,yz,xz,xy] (kbar):     -518.41     -518.03     -518.41       -0.00       23.80       -0.00
(Free)E + p*V (eV/cell)     -181.7416
Target enthalpy (eV/cell)     -194.6893

mulliken: Atomic and Orbital Populations:

Species: Si                  
Atom  Qatom  Qorb
               3s      3py     3pz     3px     
   1  4.000   1.000   1.000   1.000   1.000
   2  4.000   1.000   1.000   1.000   1.000

mulliken: Qtot =        8.000

siesta: Calculating polarization. 

siesta: Macroscopic polarization per unit cell (a.u.):
siesta: Along the lattice vectors     21.767212    7.255862   21.767212
siesta: Along cartesian directions    20.522412   30.783486   20.522412

siesta: Macroscopic polarization per unit cell (Debye):
siesta: Along the lattice vectors     55.326771   18.442575   55.326771
siesta: Along cartesian directions    52.162805   78.243871   52.162805

obc: Macroscopic polarization per unit cell along the lattice vectors (Bohr): 
obc:   21.767212    7.255862   21.767212

                     ====================================
                        Begin FC step =     11
                         displace atom 2
                         in direction 3 by -0.021167 Ang
                     ====================================

outcoor: Atomic coordinates (fractional):                   
    0.00000000    0.00000000    0.00000000   1       1  Si
    0.24610183    0.24610183    0.25389817   1       2  Si

superc: Internal auxiliary supercell:     5 x     5 x     5  =     125
superc: Number of atoms, orbitals, and projectors:    250   1000   2250

outcell: Unit cell vectors (Ang):
        0.000000    2.715000    2.715000
        2.715000    0.000000    2.715000
        2.715000    2.715000    0.000000

outcell: Cell vector modules (Ang)   :    3.839590    3.839590    3.839590
outcell: Cell angles (23,13,12) (deg):     60.0000     60.0000     60.0000
outcell: Cell volume (Ang**3)        :     40.0258
<dSpData1D:S at geom step 11
  <sparsity:sparsity for geom step 11
    nrows_g=8 nrows=5 sparsity=19.1875 nnzs=1228, refcount: 7>
  <dData1D:(new from dSpData1D) n=1228, refcount: 1>
refcount: 1>
new_DM -- step:    12
Re-using DM from previous geometries...
Number of DMs in history: 1
 DM extrapolation coefficients: 
1   1.00000
New DM after history re-use:
<dSpData2D:SpM extrapolated using coords
  <sparsity:sparsity for geom step 11
    nrows_g=8 nrows=5 sparsity=19.1875 nnzs=1228, refcount: 9>
  <dData2D:(temp array for extrapolation) n=1228 m=1, refcount: 1>
refcount: 1>
No. of atoms with KB's overlaping orbs in proc 0. Max # of overlaps:      17      56
New grid distribution:   1
           1       1:   12    1:   12    1:    6
           2       1:   12    1:   12    7:   12

InitMesh: MESH =    24 x    24 x    24 =       13824
InitMesh: (bp) =    12 x    12 x    12 =        1728
InitMesh: Mesh cutoff (required, used) =   130.000   161.974 Ry
ExtMesh (bp) on 0 =    64 x    64 x    58 =      237568
New grid distribution:   2
           1       1:   12    1:   12    1:    6
           2       1:   12    1:   12    7:   12
New grid distribution:   3
           1       1:   12    1:   12    1:    6
           2       1:   12    1:   12    7:   12
Setting up quadratic distribution...
ExtMesh (bp) on 0 =    64 x    64 x    58 =      237568
PhiOnMesh: Number of (b)points on node 0 =                  864
PhiOnMesh: nlist on node 0 =                24883

        iscf     Eharris(eV)        E_KS(eV)     FreeEng(eV)     dDmax    Ef(eV) dHmax(eV)
   scf:    1     -194.679948     -194.689318     -194.689318  0.019058 -1.349271  0.037791
   scf:    2     -194.689308     -194.689315     -194.689315  0.001003 -1.349112  0.002508
   scf:    3     -194.689318     -194.689318     -194.689318  0.000806 -1.349114  0.000415
   scf:    4     -194.689318     -194.689318     -194.689318  0.000118 -1.349113  0.000064
   scf:    5     -194.689318     -194.689318     -194.689318  0.000013 -1.349113  0.000043

SCF Convergence by DM+H criterion
max |DM_out - DM_in|         :     0.0000127472
max |H_out - H_in|      (eV) :     0.0000429442
SCF cycle converged after 5 iterations

Using DM_out to compute the final energy and forces
No. of atoms with KB's overlaping orbs in proc 0. Max # of overlaps:      17      56

siesta: E_KS(eV) =             -194.6893

siesta: Atomic forces (eV/Ang):
     1   -0.000000   -0.000000   -0.795797
     2    0.000000    0.000000    0.785371
----------------------------------------
   Tot   -0.000000   -0.000000   -0.010426
----------------------------------------
   Max    0.795797
   Res    0.456454    sqrt( Sum f_i^2 / 3N )
----------------------------------------
   Max    0.795797    constrained

Stress tensor Voigt[x,y,z,yz,xz,xy] (kbar):     -518.41     -518.41     -518.03       -0.00       -0.00      -23.80
(Free)E + p*V (eV/cell)     -181.7416
Target enthalpy (eV/cell)     -194.6893

mulliken: Atomic and Orbital Populations:

Species: Si                  
Atom  Qatom  Qorb
               3s      3py     3pz     3px     
   1  4.000   1.000   1.000   1.000   1.000
   2  4.000   1.000   1.000   1.000   1.000

mulliken: Qtot =        8.000

                     ====================================
                        Begin FC step =     12
                         displace atom 2
                         in direction 3 by  0.021167 Ang
                     ====================================

outcoor: Atomic coordinates (fractional):                   
    0.00000000    0.00000000    0.00000000   1       1  Si
    0.25389817    0.25389817    0.24610183   1       2  Si

superc: Internal auxiliary supercell:     5 x     5 x     5  =     125
superc: Number of atoms, orbitals, and projectors:    250   1000   2250

outcell: Unit cell vectors (Ang):
        0.000000    2.715000    2.715000
        2.715000    0.000000    2.715000
        2.715000    2.715000    0.000000

outcell: Cell vector modules (Ang)   :    3.839590    3.839590    3.839590
outcell: Cell angles (23,13,12) (deg):     60.0000     60.0000     60.0000
outcell: Cell volume (Ang**3)        :     40.0258
<dSpData1D:S at geom step 12
  <sparsity:sparsity for geom step 12
    nrows_g=8 nrows=5 sparsity=19.1875 nnzs=1228, refcount: 7>
  <dData1D:(new from dSpData1D) n=1228, refcount: 1>
refcount: 1>
new_DM -- step:    13
Re-using DM from previous geometries...
Number of DMs in history: 1
 DM extrapolation coefficients: 
1   1.00000
New DM after history re-use:
<dSpData2D:SpM extrapolated using coords
  <sparsity:sparsity for geom step 12
    nrows_g=8 nrows=5 sparsity=19.1875 nnzs=1228, refcount: 9>
  <dData2D:(temp array for extrapolation) n=1228 m=1, refcount: 1>
refcount: 1>
No. of atoms with KB's overlaping orbs in proc 0. Max # of overlaps:      17      56
New grid distribution:   1
           1       1:   12    1:   12    1:    6
           2       1:   12    1:   12    7:   12

InitMesh: MESH =    24 x    24 x    24 =       13824
InitMesh: (bp) =    12 x    12 x    12 =        1728
InitMesh: Mesh cutoff (required, used) =   130.000   161.974 Ry
ExtMesh (bp) on 0 =    64 x    64 x    58 =      237568
New grid distribution:   2
           1       1:   12    1:   12    1:    6
           2       1:   12    1:   12    7:   12
New grid distribution:   3
           1       1:   12    1:   12    1:    6
           2       1:   12    1:   12    7:   12
Setting up quadratic distribution...
ExtMesh (bp) on 0 =    64 x    64 x    58 =      237568
PhiOnMesh: Number of (b)points on node 0 =                  864
PhiOnMesh: nlist on node 0 =                24877

        iscf     Eharris(eV)        E_KS(eV)     FreeEng(eV)     dDmax    Ef(eV) dHmax(eV)
   scf:    1     -194.679948     -194.689318     -194.689318  0.019058 -1.349271  0.037791
   scf:    2     -194.689308     -194.689315     -194.689315  0.001003 -1.349112  0.002508
   scf:    3     -194.689318     -194.689318     -194.689318  0.000806 -1.349114  0.000415
   scf:    4     -194.689318     -194.689318     -194.689318  0.000118 -1.349113  0.000064
   scf:    5     -194.689318     -194.689318     -194.689318  0.000013 -1.349113  0.000043

SCF Convergence by DM+H criterion
max |DM_out - DM_in|         :     0.0000127472
max |H_out - H_in|      (eV) :     0.0000429442
SCF cycle converged after 5 iterations

Using DM_out to compute the final energy and forces
No. of atoms with KB's overlaping orbs in proc 0. Max # of overlaps:      17      56

siesta: E_KS(eV) =             -194.6893

siesta: Atomic forces (eV/Ang):
     1   -0.000000   -0.000000    0.795796
     2    0.000000    0.000000   -0.785371
----------------------------------------
   Tot    0.000000    0.000000    0.010425
----------------------------------------
   Max    0.795796
   Res    0.456454    sqrt( Sum f_i^2 / 3N )
----------------------------------------
   Max    0.795796    constrained

Stress tensor Voigt[x,y,z,yz,xz,xy] (kbar):     -518.41     -518.41     -518.03       -0.00       -0.00       23.80
(Free)E + p*V (eV/cell)     -181.7416
Target enthalpy (eV/cell)     -194.6893

mulliken: Atomic and Orbital Populations:

Species: Si                  
Atom  Qatom  Qorb
               3s      3py     3pz     3px     
   1  4.000   1.000   1.000   1.000   1.000
   2  4.000   1.000   1.000   1.000   1.000

mulliken: Qtot =        8.000

siesta: Calculating polarization. 

siesta: Macroscopic polarization per unit cell (a.u.):
siesta: Along the lattice vectors     21.767212   21.767212    7.255862
siesta: Along cartesian directions    20.522412   20.522412   30.783486

siesta: Macroscopic polarization per unit cell (Debye):
siesta: Along the lattice vectors     55.326771   55.326771   18.442575
siesta: Along cartesian directions    52.162805   52.162805   78.243871

obc: Macroscopic polarization per unit cell along the lattice vectors (Bohr): 
obc:   21.767212   21.767212    7.255862

siesta: Eigenvalues (eV):
  ik is       eps
   1  1  -15.2439   -2.8414   -2.7070   -2.5760   -0.3292   -0.2290   -0.1207    0.5194
siesta: Fermi energy =      -1.349113 eV

siesta: Program's energy decomposition (eV):
siesta: Ebs     =       -46.736530
siesta: Eions   =       380.802124
siesta: Ena     =       115.501633
siesta: Ekin    =       115.577679
siesta: Enl     =        29.935837
siesta: Eso     =         0.000000
siesta: Edftu   =         0.000000
siesta: DEna    =        -8.120435
siesta: DUscf   =         1.765883
siesta: DUext   =         0.000000
siesta: Exc     =       -68.547791
siesta: eta*DQ  =         0.000000
siesta: Emadel  =         0.000000
siesta: Emeta   =         0.000000
siesta: Emolmec =         0.000000
siesta: Ekinion =         0.000000
siesta: Eharris =      -194.689318
siesta: Etot    =      -194.689318
siesta: FreeEng =      -194.689318

siesta: Final energy (eV):
siesta:  Band Struct. =     -46.736530
siesta:       Kinetic =     115.577679
siesta:       Hartree =      23.678106
siesta:       Edftu   =       0.000000
siesta:       Eso     =       0.000000
siesta:    Ext. field =       0.000000
siesta:   Exch.-corr. =     -68.547791
siesta:  Ion-electron =    -120.258465
siesta:       Ion-ion =    -145.138846
siesta:       Ekinion =       0.000000
siesta:         Total =    -194.689318
siesta:         Fermi =      -1.349113

siesta: Atomic forces (eV/Ang):
siesta:      1   -0.000000   -0.000000    0.795796
siesta:      2    0.000000    0.000000   -0.785371
siesta: ----------------------------------------
siesta:    Tot    0.000000    0.000000    0.010425

siesta: Stress tensor (static) (eV/Ang**3):
siesta:    -0.323563    0.014857   -0.000000
siesta:     0.014857   -0.323563   -0.000000
siesta:    -0.000000   -0.000000   -0.323325

siesta: Cell volume =         40.025752 Ang**3

siesta: Pressure (static):
siesta:                Solid            Molecule  Units
siesta:           0.00352315          0.00362201  Ry/Bohr**3
siesta:           0.32348384          0.33256093  eV/Ang**3
siesta:         518.28385971        532.82711017  kBar
(Free)E+ p_basis*V_orbitals  =        -194.112618
(Free)Eharris+ p_basis*V_orbitals  =        -194.112618

cite: Please see "born.bib" for an exhaustive BiBTeX file.
cite: Please clearly indicate Siesta version in published work: v4.1-b4-351
cite: This calculation has made use of the following articles
cite: which are encouraged to be cited in a published work.
        Primary SIESTA paper
          DOI: www.doi.org/10.1088/0953-8984/14/11/302

>> End of run:  22-JAN-2021  21:01:26
Job completed
