Siesta Version  : v4.1-b4-351
Architecture    : x86_64-linux-n-62-26-19
Compiler version: GNU Fortran (GCC) 9.3.0
Compiler flags  : mpifort -m64 -fPIC -O3 -march=native -ftree-vectorize -fexpensive-optimizatioons -funroll-loops -fprefetch-loop-arrays -fno-second-underscore  -flto
PP flags        : -I/dtu/sw/dcc/SL73/2020-aug/generic/build-tools/1.0/include -I/dtu/sw/dcc/SL773/2020-aug/generic/gcc/9.3.0/include -I/dtu/sw/dcc/SL73/2020-aug/generic/gcc/9.3.0/include -I/dtu/sw/dcc/SL73/2020-aug/XeonE5-2660v3/gnu/9.3.0/zlib/1.2.11/include -I/dtu/sw/dcc/SL73/2020-aug/generic/numactl/2.0.12/include -I/dtu/sw/dcc/SL73/2020-aug/XeonE5-2660v3/gnu/9.3.0/libxml2/2.9.10/include -I/dtu/sw/dcc/SL73/2020-aug/XeonE5-2660v3/gnu/9.3.0/hwloc/2.2.0/include -I/dtu/sw/dcc/SL73/2020-aug/XeonE5-2660v3/gnu/9.3.0/knem/1.1.4/include -I/dtu/sw/dcc/SL73/2020-aug/XeonE5-2660v3/gnu/9.3.0/ucx/1.8.1/include -I/dtu/sw/dcc/SL73/2020-aug/XeonE5-2660v3/gnu/9.3.0/openmpi/4.0.4/include -I/dtu/sw/dcc/SL73/2020-aug/XeonE5-2660v3/gnu/9.3.0/szip/2.1.1/include -I/dtu/sw/dcc/SL73/2020-aug/XeonE5-2660v3/gnu/9.3.0/hdf5/1.12.0/include -I/dtu/sw/dcc/SL73/2020-aug/XeonE5-2660v3/gnu/9.3.0/pnetcdf/1.12.1/include -I/dtu/sw/dcc/SL73/2020-aug/generic/gen-zlib/1.2.11/include -I/dtu/sw/dcc/SL73/2020-aug/generic/openssl/1.1.1/include -I/dtu/sw/dcc/SL73/2020-aug/generic/libssh2/1.8.2/include -I/dtu/sw/dcc/SL73/2020-aug/generic/curl/7.65.1/include -I/dtu/sw/dcc/SL73/2020-aug/XeonE5-2660v3/gnu/9.3.0/netcdf/4.7.4/include -I/dtu/sw/dcc/SL73/2020-aug/XeonE5-2660v3/gnu/9.3.0/flook/0.8.1/include -I/dtu/sw/dcc/SL73/2020-aug/XeonE5-2660v3/gnu/9.3.0/fftw/3.3.8/include -I/dtu/sw/dcc/SL73/2020-aug/XeonE5-2660v3/gnu/9.3.0/parmetis/4.0.3/include -I/dtu/sw/dcc/SL73/2020-aug/XeonE5-2660v3/gnu/9.3.0/scalapack/2.1.0/include -I/dtu/sw/dcc/SL73/2020-aug/XeonE5-2660v3/gnu/9.3.0/lapack/3.9.0/include -I/dtu/sw/dcc/SL73/2020-aug/XeonE5-2660v3/gnu/9.3.0/blis/0.7.0/include -I/dtu/sw/dcc/SL73/2020-aug/XeonE5-2660v3/gnu/9.3.0/scotch/6.0.9/include -I/dtu/sw/dcc/SL73/2020-aug/XeonE5-2660v3/gnu/9.3.0/mumps/5.3.3/include -I/dtu/sw/dcc/SL73/2020-aug/XeonE5-2660v3/gnu/9.3.0/elpa/2020.05.001/include -DSIESTA__ELPA -DMPI -DFC_HAVE_FLUSH -DFC_HAVE_ABORT -DCDF -DCDF4 -DSIESTA__FLOOK  -DNCDF -DNCDF_4 -DNCDF_PARALLEL -DTS_NOCHECKS -DSIESTA__METIS -DSIESTA__MUMPS -DSIESTA__MRRR -I/dtu/sw/dcc/SL73/2020-aug/XeonE5-2660v3/gnu/9.3.0/elpa/2020.05.001/include/elpa
Libraries       : libncdf.a libfdict.a -lnetcdff -lnetcdf -lpnetcdf -lhdf5_hl -lhdf5 -lz  -lzmuumps -lmumps_common -lesmumps -lscotch -lscotcherr -lpord -lparmetis -lmetis -lelpa -lscalapack -llapack -lblis  -L/dtu/sw/dcc/SL73/2020-aug/XeonE5-2660v3/gnu/9.3.0/flook/0.8.1/lib -Wl,-rpath=/dtu/sw/dcc/SL73/2020-aug/XeonE5-2660v3/gnu/9.3.0/flook/0.8.1/lib -lflookall -ldl  -flto -fuse-linker-plugin  -lmetis
PARALLEL version
NetCDF support
NetCDF-4 support
NetCDF-4 MPI-IO support
METIS ordering support
Lua support

* Running on 8 nodes in parallel
>> Start of run:  22-JAN-2021  21:47:36

                           ***********************       
                           *  WELCOME TO SIESTA  *       
                           ***********************       

reinit: Reading from ../carbon_nanoscroll.fdf

reinit: -----------------------------------------------------------------------
reinit: System Name: scroll_80-5-20
reinit: -----------------------------------------------------------------------
reinit: System Label: carbon_nanoscroll
reinit: -----------------------------------------------------------------------

initatom: Reading input for the pseudopotentials and atomic orbitals ----------
Species number:   1 Atomic number:    6 Label: C_2
Species number:   2 Atomic number:    1 Label: H

Ground state valence configuration:   2s02  2p02
Reading pseudopotential information in formatted form from C_2.psf

Valence configuration for pseudopotential generation:
2s( 2.00) rc: 1.25
2p( 2.00) rc: 1.25
3d( 0.00) rc: 1.25
4f( 0.00) rc: 1.25
Ground state valence configuration:   1s01
Reading pseudopotential information in formatted form from H.psf

Valence configuration for pseudopotential generation:
1s( 1.00) rc: 1.25
2p( 0.00) rc: 1.25
3d( 0.00) rc: 1.25
4f( 0.00) rc: 1.25
For C_2, standard SIESTA heuristics set lmxkb to 2
 (one more than the basis l, including polarization orbitals).
Use PS.lmax or PS.KBprojectors blocks to override.
For H, standard SIESTA heuristics set lmxkb to 1
 (one more than the basis l, including polarization orbitals).
Use PS.lmax or PS.KBprojectors blocks to override.

<basis_specs>
===============================================================================
C_2                  Z=   6    Mass=  12.010        Charge= 0.17977+309
Lmxo=1 Lmxkb= 2    BasisType=split      Semic=F
L=0  Nsemic=0  Cnfigmx=2
          i=1  nzeta=1  polorb=0  (2s)
            splnorm:   0.15000    
               vcte:    0.0000    
               rinn:    0.0000    
               qcoe:    0.0000    
               qyuk:    0.0000    
               qwid:   0.10000E-01
                rcs:    0.0000    
            lambdas:    1.0000    
L=1  Nsemic=0  Cnfigmx=2
          i=1  nzeta=1  polorb=0  (2p)
            splnorm:   0.15000    
               vcte:    0.0000    
               rinn:    0.0000    
               qcoe:    0.0000    
               qyuk:    0.0000    
               qwid:   0.10000E-01
                rcs:    0.0000    
            lambdas:    1.0000    
-------------------------------------------------------------------------------
L=0  Nkbl=1  erefs: 0.17977+309
L=1  Nkbl=1  erefs: 0.17977+309
L=2  Nkbl=1  erefs: 0.17977+309
===============================================================================
</basis_specs>

atom: Called for C_2                   (Z =   6)

read_vps: Pseudopotential generation method:
read_vps: ATM3      Troullier-Martins                       
Valence charge for ps generation:    4.00000

xc_check: Exchange-correlation functional:
xc_check: Ceperley-Alder
V l=0 = -2*Zval/r beyond r=  1.3951
V l=1 = -2*Zval/r beyond r=  1.3777
V l=2 = -2*Zval/r beyond r=  1.3777
All V_l potentials equal beyond r=  1.2311
This should be close to max(r_c) in ps generation
All pots = -2*Zval/r beyond r=  1.3951

VLOCAL1: 99.0% of the norm of Vloc inside     28.641 Ry
VLOCAL1: 99.9% of the norm of Vloc inside     65.273 Ry
atom: Maximum radius for 4*pi*r*r*local-pseudopot. charge    1.48507
atom: Maximum radius for r*vlocal+2*Zval:    1.27815
GHOST: No ghost state for L =  0
GHOST: No ghost state for L =  1
GHOST: No ghost state for L =  2

KBgen: Kleinman-Bylander projectors: 
   l= 0   rc=  1.600766   el= -1.001946   Ekb=  7.816946   kbcos=  0.279978
   l= 1   rc=  1.620907   el= -0.398597   Ekb= -4.829535   kbcos= -0.287433
   l= 2   rc=  1.836783   el=  0.002326   Ekb= -1.327964   kbcos= -0.005365

KBgen: Total number of  Kleinman-Bylander projectors:    9
atom: -------------------------------------------------------------------------

atom: SANKEY-TYPE ORBITALS:

SPLIT: Orbitals with angular momentum L= 0

SPLIT: Basis orbitals for state 2s

SPLIT: PAO cut-off radius determined from an
SPLIT: energy shift=  0.020000 Ry

   izeta = 1
                 lambda =    1.000000
                     rc =    4.191849
                 energy =   -0.983900
                kinetic =    0.918801
    potential(screened) =   -1.902702
       potential(ionic) =   -5.506899

SPLIT: Orbitals with angular momentum L= 1

SPLIT: Basis orbitals for state 2p

SPLIT: PAO cut-off radius determined from an
SPLIT: energy shift=  0.020000 Ry

   izeta = 1
                 lambda =    1.000000
                     rc =    4.870301
                 energy =   -0.379088
                kinetic =    2.614064
    potential(screened) =   -2.993152
       potential(ionic) =   -6.506293
atom: Total number of Sankey-type orbitals:  4

atm_pop: Valence configuration (for local Pseudopot. screening):
 2s( 2.00)                                                            
 2p( 2.00)                                                            
Vna: chval, zval:    4.00000   4.00000

Vna:  Cut-off radius for the neutral-atom potential:   4.870301

atom: _________________________________________________________________________

<basis_specs>
===============================================================================
H                    Z=   1    Mass=  1.0100        Charge= 0.17977+309
Lmxo=0 Lmxkb= 1    BasisType=split      Semic=F
L=0  Nsemic=0  Cnfigmx=1
          i=1  nzeta=1  polorb=0  (1s)
            splnorm:   0.15000    
               vcte:    0.0000    
               rinn:    0.0000    
               qcoe:    0.0000    
               qyuk:    0.0000    
               qwid:   0.10000E-01
                rcs:    0.0000    
            lambdas:    1.0000    
-------------------------------------------------------------------------------
L=0  Nkbl=1  erefs: 0.17977+309
L=1  Nkbl=1  erefs: 0.17977+309
===============================================================================
</basis_specs>

atom: Called for H                     (Z =   1)

read_vps: Pseudopotential generation method:
read_vps: ATM3      Troullier-Martins                       
Valence charge for ps generation:    1.00000

xc_check: Exchange-correlation functional:
xc_check: Ceperley-Alder
V l=0 = -2*Zval/r beyond r=  1.2343
V l=1 = -2*Zval/r beyond r=  1.2189
All V_l potentials equal beyond r=  1.2343
This should be close to max(r_c) in ps generation
All pots = -2*Zval/r beyond r=  1.2343

VLOCAL1: 99.0% of the norm of Vloc inside     28.493 Ry
VLOCAL1: 99.9% of the norm of Vloc inside     64.935 Ry
atom: Maximum radius for 4*pi*r*r*local-pseudopot. charge    1.45251
atom: Maximum radius for r*vlocal+2*Zval:    1.21892
GHOST: No ghost state for L =  0
GHOST: No ghost state for L =  1

KBgen: Kleinman-Bylander projectors: 
   l= 0   rc=  1.364359   el= -0.467325   Ekb= -2.005361   kbcos= -0.336422
   l= 1   rc=  1.434438   el=  0.001430   Ekb= -0.501708   kbcos= -0.021697

KBgen: Total number of  Kleinman-Bylander projectors:    4
atom: -------------------------------------------------------------------------

atom: SANKEY-TYPE ORBITALS:

SPLIT: Orbitals with angular momentum L= 0

SPLIT: Basis orbitals for state 1s

SPLIT: PAO cut-off radius determined from an
SPLIT: energy shift=  0.020000 Ry

   izeta = 1
                 lambda =    1.000000
                     rc =    4.828263
                 energy =   -0.449375
                kinetic =    0.929372
    potential(screened) =   -1.378747
       potential(ionic) =   -1.915047
atom: Total number of Sankey-type orbitals:  1

atm_pop: Valence configuration (for local Pseudopot. screening):
 1s( 1.00)                                                            
Vna: chval, zval:    1.00000   1.00000

Vna:  Cut-off radius for the neutral-atom potential:   4.828263

atom: _________________________________________________________________________

prinput: Basis input ----------------------------------------------------------

PAO.BasisType split     

%block ChemicalSpeciesLabel
    1    6 C_2                     # Species index, atomic number, species label
    2    1 H                       # Species index, atomic number, species label
%endblock ChemicalSpeciesLabel

%block PAO.Basis                 # Define Basis set
C_2                   2                    # Species label, number of l-shells
 n=2   0   1                         # n, l, Nzeta 
   4.192   
   1.000   
 n=2   1   1                         # n, l, Nzeta 
   4.870   
   1.000   
H                     1                    # Species label, number of l-shells
 n=1   0   1                         # n, l, Nzeta 
   4.828   
   1.000   
%endblock PAO.Basis

prinput: ----------------------------------------------------------------------

Dumping basis to NetCDF file C_2.ion.nc
Dumping basis to NetCDF file H.ion.nc
coor:   Atomic-coordinates input format  =     Cartesian coordinates
coor:                                          (in Angstroms)

siesta: Atomic coordinates (Bohr) and species
siesta:    -16.03127  -0.46729   0.00000  2        1
siesta:    -15.97252  -2.70953   0.00000  1        2
siesta:    -15.77799  -4.02941  -2.32058  1        3
siesta:    -15.06163  -6.61867  -2.32058  1        4
siesta:    -14.54946  -7.85491   0.00000  1        5
siesta:    -13.23230 -10.18589   0.00000  1        6
siesta:    -12.43648 -11.26557  -2.32058  1        7
siesta:    -10.60997 -13.20775  -2.32058  1        8
siesta:     -9.57995 -14.07049   0.00000  1        9
siesta:     -7.33044 -15.54023   0.00000  1       10
siesta:     -6.14127 -16.13150  -2.32058  1       11
siesta:     -3.62688 -17.03632  -2.32058  1       12
siesta:     -2.31603 -17.34272   0.00000  1       13
siesta:      0.33962 -17.64852   0.00000  1       14
siesta:      1.68601 -17.64899  -2.32058  1       15
siesta:      4.34167 -17.34735  -2.32058  1       16
siesta:      5.65340 -17.04590   0.00000  1       17
siesta:      8.17333 -16.16068   0.00000  1       18
siesta:      9.38474 -15.57685  -2.32058  1       19
siesta:     11.64569 -14.16090  -2.32058  1       20
siesta:     12.69889 -13.32773   0.00000  1       21
siesta:     14.60785 -11.44422   0.00000  1       22
siesta:     15.45422 -10.40476  -2.32058  1       23
siesta:     16.91073  -8.15952  -2.32058  1       24
siesta:     17.51427  -6.96610   0.00000  1       25
siesta:     18.45929  -4.46947   0.00000  1       26
siesta:     18.80129  -3.16074  -2.32058  1       27
siesta:     19.20121  -0.51002  -2.32058  1       28
siesta:     19.26102   0.81801   0.00000  1       29
siesta:     19.10393   3.48511   0.00000  1       30
siesta:     18.88642   4.81132  -2.32058  1       31
siesta:     18.18186   7.39828  -2.32058  1       32
siesta:     17.69948   8.64707   0.00000  1       33
siesta:     16.48913  11.02716   0.00000  1       34
siesta:     15.75671  12.16446  -2.32058  1       35
siesta:     14.08638  14.25776  -2.32058  1       36
siesta:     13.15945  15.20669   0.00000  1       37
siesta:     11.10112  16.93093   0.00000  1       38
siesta:      9.99346  17.68484  -2.32058  1       39
siesta:      7.64774  18.96271  -2.32058  1       40
siesta:      6.40147  19.48979   0.00000  1       41
siesta:      3.84565  20.28552   0.00000  1       42
siesta:      2.54839  20.55475  -2.32058  1       43
siesta:     -0.11773  20.84344  -2.32058  1       44
siesta:     -1.45509  20.85839   0.00000  1       45
siesta:     -4.13143  20.63007   0.00000  1       46
siesta:     -5.43863  20.39115  -2.32058  1       47
siesta:     -8.02656  19.65805  -2.32058  1       48
siesta:     -9.27627  19.17160   0.00000  1       49
siesta:    -11.66355  17.97249   0.00000  1       50
siesta:    -12.81023  17.25415  -2.32058  1       51
siesta:    -14.93334  15.62874  -2.32058  1       52
siesta:    -15.91947  14.71638   0.00000  1       53
siesta:    -17.70667  12.72531   0.00000  1       54
siesta:    -18.50218  11.65536  -2.32058  1       55
siesta:    -19.89571   9.37012  -2.32058  1       56
siesta:    -20.48776   8.16283   0.00000  1       57
siesta:    -21.44262   5.66172   0.00000  1       58
siesta:    -21.80357   4.37776  -2.32058  1       59
siesta:    -22.29294   1.74571  -2.32058  1       60
siesta:    -22.41872   0.40688   0.00000  1       61
siesta:    -22.42928  -2.26975   0.00000  1       62
siesta:    -22.31586  -3.59795  -2.32058  1       63
siesta:    -21.85290  -6.23311  -2.32058  1       64
siesta:    -21.50417  -7.53075   0.00000  1       65
siesta:    -20.58536 -10.04186   0.00000  1       66
siesta:    -20.00986 -11.26776  -2.32058  1       67
siesta:    -18.66701 -13.57759  -2.32058  1       68
siesta:    -17.89432 -14.67439   0.00000  1       69
siesta:    -16.55183 -16.33716   0.00000  2       70
siesta:    -16.03127  -0.46729  -4.64117  2       71
siesta:    -15.97252  -2.70953  -4.64117  1       72
siesta:    -15.77799  -4.02941  -6.96175  1       73
siesta:    -15.06163  -6.61867  -6.96175  1       74
siesta:    -14.54946  -7.85491  -4.64117  1       75
siesta:    -13.23230 -10.18589  -4.64117  1       76
siesta:    -12.43648 -11.26557  -6.96175  1       77
siesta:    -10.60997 -13.20775  -6.96175  1       78
siesta:     -9.57995 -14.07049  -4.64117  1       79
siesta:     -7.33044 -15.54023  -4.64117  1       80
siesta:     -6.14127 -16.13150  -6.96175  1       81
siesta:     -3.62688 -17.03632  -6.96175  1       82
siesta:     -2.31603 -17.34272  -4.64117  1       83
siesta:      0.33962 -17.64852  -4.64117  1       84
siesta:      1.68601 -17.64899  -6.96175  1       85
siesta:      4.34167 -17.34735  -6.96175  1       86
siesta:      5.65340 -17.04590  -4.64117  1       87
siesta:      8.17333 -16.16068  -4.64117  1       88
siesta:      9.38474 -15.57685  -6.96175  1       89
siesta:     11.64569 -14.16090  -6.96175  1       90
siesta:     12.69889 -13.32773  -4.64117  1       91
siesta:     14.60785 -11.44422  -4.64117  1       92
siesta:     15.45422 -10.40476  -6.96175  1       93
siesta:     16.91073  -8.15952  -6.96175  1       94
siesta:     17.51427  -6.96610  -4.64117  1       95
siesta:     18.45929  -4.46947  -4.64117  1       96
siesta:     18.80129  -3.16074  -6.96175  1       97
siesta:     19.20121  -0.51002  -6.96175  1       98
siesta:     19.26102   0.81801  -4.64117  1       99
siesta:     19.10393   3.48511  -4.64117  1      100
siesta:     18.88642   4.81132  -6.96175  1      101
siesta:     18.18186   7.39828  -6.96175  1      102
siesta:     17.69948   8.64707  -4.64117  1      103
siesta:     16.48913  11.02716  -4.64117  1      104
siesta:     15.75671  12.16446  -6.96175  1      105
siesta:     14.08638  14.25776  -6.96175  1      106
siesta:     13.15945  15.20669  -4.64117  1      107
siesta:     11.10112  16.93093  -4.64117  1      108
siesta:      9.99346  17.68484  -6.96175  1      109
siesta:      7.64774  18.96271  -6.96175  1      110
siesta:      6.40147  19.48979  -4.64117  1      111
siesta:      3.84565  20.28552  -4.64117  1      112
siesta:      2.54839  20.55475  -6.96175  1      113
siesta:     -0.11773  20.84344  -6.96175  1      114
siesta:     -1.45509  20.85839  -4.64117  1      115
siesta:     -4.13143  20.63007  -4.64117  1      116
siesta:     -5.43863  20.39115  -6.96175  1      117
siesta:     -8.02656  19.65805  -6.96175  1      118
siesta:     -9.27627  19.17160  -4.64117  1      119
siesta:    -11.66355  17.97249  -4.64117  1      120
siesta:    -12.81023  17.25415  -6.96175  1      121
siesta:    -14.93334  15.62874  -6.96175  1      122
siesta:    -15.91947  14.71638  -4.64117  1      123
siesta:    -17.70667  12.72531  -4.64117  1      124
siesta:    -18.50218  11.65536  -6.96175  1      125
siesta:    -19.89571   9.37012  -6.96175  1      126
siesta:    -20.48776   8.16283  -4.64117  1      127
siesta:    -21.44262   5.66172  -4.64117  1      128
siesta:    -21.80357   4.37776  -6.96175  1      129
siesta:    -22.29294   1.74571  -6.96175  1      130
siesta:    -22.41872   0.40688  -4.64117  1      131
siesta:    -22.42928  -2.26975  -4.64117  1      132
siesta:    -22.31586  -3.59795  -6.96175  1      133
siesta:    -21.85290  -6.23311  -6.96175  1      134
siesta:    -21.50417  -7.53075  -4.64117  1      135
siesta:    -20.58536 -10.04186  -4.64117  1      136
siesta:    -20.00986 -11.26776  -6.96175  1      137
siesta:    -18.66701 -13.57759  -6.96175  1      138
siesta:    -17.89432 -14.67439  -4.64117  1      139
siesta:    -16.55183 -16.33716  -4.64117  2      140

siesta: System type = chain     

initatomlists: Number of atoms, orbitals, and projectors:    140   548  1240

siesta: ******************** Simulation parameters ****************************
siesta:
siesta: The following are some of the parameters of the simulation.
siesta: A complete list of the parameters used, including default values,
siesta: can be found in file out.fdf
siesta:
redata: Spin configuration                          = none
redata: Number of spin components                   = 1
redata: Time-Reversal Symmetry                      = T
redata: Spin spiral                                 = F
redata: Long output                                 =   F
redata: Number of Atomic Species                    =        2
redata: Charge density info will appear in .RHO file
redata: Write Mulliken Pop.                         = NO
redata: Matel table size (NRTAB)                    =     1024
redata: Mesh Cutoff                                 =    90.0000 Ry
redata: Net charge of the system                    =     0.0000 |e|
redata: Min. number of SCF Iter                     =        0
redata: Max. number of SCF Iter                     =     1000
redata: SCF convergence failure will abort job
redata: SCF mix quantity                            = Hamiltonian
redata: Mix DM or H after convergence               =   F
redata: Recompute H after scf cycle                 =   F
redata: Mix DM in first SCF step                    =   T
redata: Write Pulay info on disk                    =   F
redata: New DM Occupancy tolerance                  = 0.000000000001
redata: No kicks to SCF
redata: DM Mixing Weight for Kicks                  =     0.5000
redata: Require Harris convergence for SCF          =   F
redata: Harris energy tolerance for SCF             =     0.000100 eV
redata: Require DM convergence for SCF              =   T
redata: DM tolerance for SCF                        =     0.000050
redata: Require EDM convergence for SCF             =   F
redata: EDM tolerance for SCF                       =     0.001000 eV
redata: Require H convergence for SCF               =   T
redata: Hamiltonian tolerance for SCF               =     0.001000 eV
redata: Require (free) Energy convergence for SCF   =   F
redata: (free) Energy tolerance for SCF             =     0.000100 eV
redata: Using Saved Data (generic)                  =   T
redata: Use continuation files for DM               =   T
redata: Neglect nonoverlap interactions             =   F
redata: Method of Calculation                       = Diagonalization
redata: Electronic Temperature                      =   299.9869 K
redata: Fix the spin of the system                  =   F
redata: Dynamics option                             = Single-point calculation
mix.SCF: Pulay mixing                            = Pulay
mix.SCF:    Variant                              = stable
mix.SCF:    History steps                        = 3
mix.SCF:    Linear mixing weight                 =     0.100000
mix.SCF:    Mixing weight                        =     0.100000
mix.SCF:    SVD condition                        = 0.1000E-07
redata: Save all siesta data in one NC              =   F
redata: ***********************************************************************

%block SCF.Mixers
  Pulay
%endblock SCF.Mixers

%block SCF.Mixer.Pulay
  # Mixing method
  method pulay
  variant stable

  # Mixing options
  weight 0.1000
  weight.linear 0.1000
  history 3
%endblock SCF.Mixer.Pulay

DM_history_depth set to one: no extrapolation allowed by default for geometry relaxation
Size of DM history Fstack: 1
Total number of electrons:   548.000000
Total ionic charge:   548.000000

* ProcessorY, Blocksize:    2  24


* Orbital distribution balance (max,min):    72    48

k-point displ. along   1 input, could be:     0.50    0.00
k-point displ. along   2 input, could be:     0.50    0.00
 Kpoints in:            3 . Kpoints trimmed:            3

siesta: k-grid: Number of k-points =     3
siesta: k-grid: Cutoff (effective) =    14.620 Ang
siesta: k-grid: Supercell and displacements
siesta: k-grid:    1   0   0      0.500
siesta: k-grid:    0   1   0      0.500
siesta: k-grid:    0   0   6      0.500

diag: Algorithm                                     = D&C
diag: Parallel over k                               =   F
diag: Use parallel 2D distribution                  =   T
diag: Parallel block-size                           = 24
diag: Parallel distribution                         =     2 x     4
diag: Used triangular part                          = Lower
diag: Absolute tolerance                            =  0.100E-15
diag: Orthogonalization factor                      =  0.100E-05
diag: Memory factor                                 =  1.0000
Using current reciprocal lattice vectors for BandLinesScale
Beware any cell changes by the end of the run
Using current reciprocal lattice vectors for BandLinesScale
Beware any cell changes by the end of the run

superc: Internal auxiliary supercell:     1 x     1 x     3  =       3
superc: Number of atoms, orbitals, and projectors:    420   1644   3720


ts: **************************************************************
ts: Save H and S matrices                           =    F
ts: Save DM and EDM matrices                        =    F
ts: Only save the overlap matrix S                  =    F
ts: **************************************************************

************************ Begin: TS CHECKS AND WARNINGS ************************
************************ End: TS CHECKS AND WARNINGS **************************


                     ====================================
                        Single-point calculation
                     ====================================

superc: Internal auxiliary supercell:     1 x     1 x     3  =       3
superc: Number of atoms, orbitals, and projectors:    420   1644   3720

outcell: Unit cell vectors (Ang):
       35.000000    0.000000    0.000000
        0.000000   35.000000    0.000000
        0.000000    0.000000    4.873200

outcell: Cell vector modules (Ang)   :   35.000000   35.000000    4.873200
outcell: Cell angles (23,13,12) (deg):     90.0000     90.0000     90.0000
outcell: Cell volume (Ang**3)        :   5969.6700
<dSpData1D:S at geom step 0
  <sparsity:sparsity for geom step 0
    nrows_g=548 nrows=72 sparsity=.0390 nnzs=11704, refcount: 7>
  <dData1D:(new from dSpData1D) n=11704, refcount: 1>
refcount: 1>
new_DM -- step:     1
Initializing Density Matrix...

Attempting to read DM from file... Failed...
DM filled with atomic data:
<dSpData2D:DM initialized from atoms
  <sparsity:sparsity for geom step 0
    nrows_g=548 nrows=72 sparsity=.0390 nnzs=11704, refcount: 8>
  <dData2D:DM n=11704 m=1, refcount: 1>
refcount: 1>
No. of atoms with KB's overlaping orbs in proc 0. Max # of overlaps:      95      56
New grid distribution:   1
           1       1:  100    1:   50    1:    4
           2       1:  100    1:   50    5:    8
           3       1:  100    1:   50    9:   12
           4       1:  100    1:   50   13:   15
           5       1:  100   51:  100    1:    4
           6       1:  100   51:  100    5:    8
           7       1:  100   51:  100    9:   12
           8       1:  100   51:  100   13:   15

InitMesh: MESH =   200 x   200 x    30 =     1200000
InitMesh: (bp) =   100 x   100 x    15 =      150000
InitMesh: Mesh cutoff (required, used) =    90.000    90.246 Ry
ExtMesh (bp) on 0 =   132 x    82 x    36 =      389664
New grid distribution:   2
           1       1:   63   24:   72    1:   15
           2       1:   63    1:   23    1:   15
           3      64:  100    1:   23    1:   15
           4      70:  100   73:   83    1:   15
           5      64:  100   24:   72    1:   15
           6       1:   69   86:  100    1:   15
           7       1:   69   73:   85    1:   15
           8      70:  100   84:  100    1:   15
New grid distribution:   3
           1       1:   63   22:   67    1:   15
           2       1:   63    1:   21    1:   15
           3      64:  100    1:   23    1:   15
           4      68:  100   68:   81    1:   15
           5      64:  100   24:   67    1:   15
           6       1:   67   84:  100    1:   15
           7       1:   67   68:   83    1:   15
           8      68:  100   82:  100    1:   15
Setting up quadratic distribution...
ExtMesh (bp) on 0 =    95 x    81 x    47 =      361665
PhiOnMesh: Number of (b)points on node 0 =                46305
PhiOnMesh: nlist on node 0 =               131904

stepf: Fermi-Dirac step function

siesta: Program's energy decomposition (eV):
siesta: Ebs     =     -8739.170157
siesta: Eions   =     43073.118743
siesta: Ena     =     13869.888359
siesta: Ekin    =     14432.342542
siesta: Enl     =      -393.195957
siesta: Eso     =         0.000000
siesta: Edftu   =         0.000000
siesta: DEna    =       439.554076
siesta: DUscf   =        14.757299
siesta: DUext   =         0.000000
siesta: Exc     =     -6269.689232
siesta: eta*DQ  =         0.000000
siesta: Emadel  =         0.000000
siesta: Emeta   =         0.000000
siesta: Emolmec =         0.000000
siesta: Ekinion =         0.000000
siesta: Eharris =    -20790.212162
siesta: Etot    =    -20979.461656
siesta: FreeEng =    -20979.487140

        iscf     Eharris(eV)        E_KS(eV)     FreeEng(eV)     dDmax    Ef(eV) dHmax(eV)
   scf:    1   -20790.212162   -20979.461656   -20979.487140  1.444692 -5.164439  3.111738
timer: Routine,Calls,Time,% = IterSCF        1       1.143  66.74
   scf:    2   -20970.954582   -20977.794969   -20977.796937  0.269162 -5.117580  6.044017
   scf:    3   -20971.809855   -20978.768392   -20978.777525  0.419299 -5.145844  4.776510
   scf:    4   -20978.190118   -20980.044884   -20980.066771  0.226753 -5.330090  3.663057
   scf:    5   -20980.486702   -20980.377816   -20980.408054  0.063305 -5.564494  1.247122
   scf:    6   -20980.232131   -20980.360698   -20980.391114  0.049485 -5.956401  1.072780
   scf:    7   -20978.285267   -20979.848202   -20979.873607  0.152037 -5.990602  2.852182
   scf:    8   -20980.501881   -20980.433338   -20980.464797  0.105736 -5.995714  0.330524
   scf:    9   -20980.443493   -20980.439901   -20980.471076  0.007527 -6.029243  0.091747
   scf:   10   -20980.440478   -20980.440460   -20980.471692  0.002996 -6.033051  0.130962
   scf:   11   -20980.438585   -20980.440897   -20980.472078  0.007242 -6.037803  0.127610
   scf:   12   -20980.440425   -20980.441677   -20980.472908  0.006936 -6.038787  0.076239
   scf:   13   -20980.442383   -20980.442071   -20980.473281  0.001021 -6.040413  0.048776
   scf:   14   -20980.442162   -20980.442141   -20980.473325  0.000999 -6.041220  0.055949
   scf:   15   -20980.441886   -20980.442228   -20980.473384  0.002630 -6.041919  0.045541
   scf:   16   -20980.442093   -20980.442262   -20980.473425  0.002106 -6.040758  0.035448
   scf:   17   -20980.442198   -20980.442275   -20980.473417  0.001038 -6.039291  0.036321
   scf:   18   -20980.442321   -20980.442311   -20980.473449  0.000258 -6.037587  0.034318
   scf:   19   -20980.442289   -20980.442314   -20980.473453  0.001053 -6.035003  0.038322
   scf:   20   -20980.441994   -20980.442254   -20980.473398  0.002342 -6.035784  0.043401
   scf:   21   -20980.442368   -20980.442358   -20980.473504  0.001666 -6.033829  0.018950
   scf:   22   -20980.442392   -20980.442379   -20980.473531  0.000256 -6.032735  0.013825
   scf:   23   -20980.442384   -20980.442380   -20980.473539  0.000284 -6.031823  0.008305
   scf:   24   -20980.441925   -20980.442245   -20980.473417  0.002087 -6.032335  0.040545
   scf:   25   -20980.442348   -20980.442375   -20980.473539  0.001990 -6.031622  0.005439
   scf:   26   -20980.442373   -20980.442374   -20980.473541  0.000092 -6.031624  0.003270
   scf:   27   -20980.442372   -20980.442373   -20980.473541  0.000055 -6.031666  0.002302
   scf:   28   -20980.442374   -20980.442378   -20980.473548  0.000148 -6.031909  0.002641
   scf:   29   -20980.442374   -20980.442374   -20980.473541  0.000220 -6.031849  0.003220
   scf:   30   -20980.442378   -20980.442380   -20980.473549  0.000130 -6.031939  0.000548
   scf:   31   -20980.442381   -20980.442380   -20980.473549  0.000011 -6.031967  0.000393

SCF Convergence by DM+H criterion
max |DM_out - DM_in|         :     0.0000106517
max |H_out - H_in|      (eV) :     0.0003926835
SCF cycle converged after 31 iterations

Using DM_out to compute the final energy and forces
No. of atoms with KB's overlaping orbs in proc 0. Max # of overlaps:      95      56

siesta: E_KS(eV) =           -20980.4424

siesta: E_KS - E_eggbox =    -20980.4424

siesta: Atomic forces (eV/Ang):
----------------------------------------
   Tot    0.065394   -0.149944    3.183356
----------------------------------------
   Max    2.291006
   Res    0.702420    sqrt( Sum f_i^2 / 3N )
----------------------------------------
   Max    2.291006    constrained

Stress tensor Voigt[x,y,z,yz,xz,xy] (kbar):      -33.41      -40.06      -86.88        0.17        0.03        2.63
(Free)E + p*V (eV/cell)   -20781.3282
Target enthalpy (eV/cell)   -20980.4735
Computing bands...

siesta: Band energies (eV):
  ik is       eps
   1  1  -26.3421  -26.3001  -26.2602  -26.2116  -26.1604  -26.0886  -26.0311  -25.9232  -25.8649  -25.7268
         -25.6639  -25.5060  -25.4034  -25.2554  -25.1082  -24.9691  -24.7800  -24.6278  -24.4193  -24.2405
  -24.0218  -23.8221  -23.5919  -23.3715  -23.1483  -22.8876  -22.6632  -22.3907  -22.1558  -21.9830
  -21.9441  -21.9067  -21.8803  -21.8627  -21.8437  -21.8173  -21.8049  -21.7663  -21.7561  -21.7229
  -21.7070  -21.6775  -21.6519  -21.6204  -21.6119  -21.5706  -21.5652  -21.4803  -21.4528  -21.4347
  -21.4109  -21.4088  -21.3240  -21.2886  -21.2851  -21.2388  -21.2207  -21.1738  -21.1285  -21.1231
  -21.1124  -21.0568  -21.0313  -21.0122  -20.9697  -20.9290  -20.8919  -19.8462  -19.8274  -19.7994
  -19.7537  -19.7344  -19.6907  -19.6738  -19.5772  -19.5504  -19.5495  -19.4321  -19.4069  -19.2967
  -19.2747  -19.2417  -19.0978  -19.0681  -19.0313  -18.9220  -18.9005  -18.7460  -18.7253  -18.6952
  -18.5387  -18.5262  -18.4539  -18.3603  -18.2929  -18.1507  -18.1387  -18.0821  -17.9690  -17.9319
  -17.7824  -17.7796  -17.7606  -17.6234  -17.6068  -17.5343  -17.4701  -17.4392  -17.4381  -17.3437
  -17.2754  -17.1081  -16.7680  -16.4214  -16.0868  -15.7434  -15.7394  -15.6797  -15.6350  -15.5679
  -15.4905  -15.4181  -15.3995  -15.3240  -15.2490  -15.1421  -15.0639  -15.0590  -14.9710  -14.8925
  -14.7762  -14.7192  -14.6964  -14.6071  -14.5300  -14.4256  -14.3842  -14.3477  -14.2666  -14.1918
  -14.1066  -14.0730  -14.0387  -13.9731  -13.9123  -13.8518  -13.8379  -13.8095  -13.7972  -13.7892
  -13.7482  -13.7465  -13.7192  -13.6736  -13.6651  -13.6422  -13.6383  -13.6151  -13.6063  -13.5864
  -13.5713  -13.5487  -13.5030  -13.4766  -13.4671  -13.4562  -13.4199  -13.4124  -13.3736  -13.3216
  -13.2779  -13.2675  -13.2544  -13.1883  -13.1815  -13.1189  -13.0885  -13.0330  -12.9545  -12.9043
  -12.8371  -12.7458  -12.6579  -12.6089  -12.5868  -12.5751  -12.5278  -12.4906  -12.4512  -12.4270
  -12.3718  -12.3106  -12.2166  -12.1795  -12.1711  -12.1552  -12.0820  -12.0566  -11.8980  -11.8589
  -11.8112  -11.7875  -11.7632  -11.6370  -11.5988  -11.5003  -11.4161  -11.3787  -11.3670  -11.3089
  -11.2526  -11.1682  -11.1195  -11.0409  -10.9937  -10.9792  -10.9006  -10.8553  -10.8114  -10.7894
  -10.7249  -10.6997  -10.6425  -10.6330  -10.6120  -10.5767  -10.5609  -10.4860  -10.4797  -10.4705
  -10.3178  -10.1608   -9.8197   -9.6807   -9.3588   -9.2170   -9.0892   -9.0596   -9.0338   -9.0180
   -8.9863   -8.9825   -8.9690   -8.9425   -8.9195   -8.9125   -8.8982   -8.8851   -8.8713   -8.8689
   -8.8446   -8.8353   -8.8329   -8.8211   -8.7910   -8.7778   -8.7686   -8.7549   -8.7467   -8.7314
   -8.7220   -8.6989   -8.6888   -8.6767   -8.6750   -8.6743   -8.6520   -8.6354   -8.6091   -8.5956
   -8.4561   -8.3780   -8.2938   -6.0568   -5.9781   -4.2188   -4.2119   -4.1627   -4.1557   -4.1165
   -4.1139   -4.0761   -4.0686   -4.0613   -4.0129   -4.0056   -3.9536   -3.9445   -3.9274   -3.8776
   -3.8752   -3.8163   -3.7956   -3.7803   -3.7465   -3.7334   -3.6950   -3.6544   -3.6302   -3.6027
   -3.5740   -3.5582   -3.5379   -3.5275   -3.4838   -3.4679   -3.4304   -3.4104   -3.3655   -3.3313
   -3.3218   -3.2809   -3.1964   -3.0027   -2.7322   -2.3732   -2.0503   -1.6781   -1.3130   -0.9535
   -0.5837   -0.2101    0.1366    0.5012    0.7935    1.0671    1.2770    1.5826    1.8293    1.9760
    2.2126    2.4211    2.4986    2.5580    2.6048    2.6480    2.6915    2.7461    2.7915    2.8381
    2.8778    2.9084    3.0227    3.0981    3.2248    3.2275    3.3468    3.4042    3.5010    3.5720
    3.6537    3.6883    3.7439    3.7580    3.7848    3.8632    3.8766    3.8804    3.9341    3.9554
    3.9602    4.0004    4.0216    4.0488    4.0593    4.0696    4.0790    4.1059    4.1083    4.1466
    4.1752    4.2015    4.2149    4.2235    4.2373    4.2599    4.2739    4.2922    4.3109    4.3331
    4.3557    4.3768    4.3934    4.4021    4.4665    4.4736    4.5013    4.5389    4.5753    4.6279
    4.6561    4.7103    4.7319    4.7489    4.8095    4.8308    4.8905    4.9129    4.9496    4.9738
    5.1829    5.3521    5.4151    5.5332    5.6774    5.7373    5.8337    5.8830    5.9674    6.0628
    6.2076    6.2790    6.4241    6.6271    6.6883    6.8329    7.0788    7.0830    7.2250    7.4582
    7.4950    7.6056    7.8503    7.9665    7.9874    8.1630    8.2815    8.3696    8.4107    8.4998
    8.5591    8.6135    8.6817    8.7390    8.8165    8.8439    8.8996    9.0043    9.1315    9.2802
    9.3204    9.4522    9.6685    9.7120    9.8778    9.8808   10.0874   10.1285   10.1611   10.3748
   10.4360   10.4925   10.5774   10.6007   10.7078   10.7644   10.8568   10.9401   10.9982   11.1072
   11.1618   11.2985   11.3200   11.4282   11.4404   11.6048   11.6465   11.7156   11.7791   11.8672
   11.9568   12.0133   12.1235   12.1421   12.2430   12.2640   12.3814   12.4321   12.5006   12.5203
   12.6245   12.7155   12.7221   12.7818   12.8163   12.9010   12.9255   12.9867   13.0758   13.0828
   13.0998   13.1512   13.1891   13.2185   13.2492   13.2860   13.2977   13.3263   13.3526   13.3904
   13.4275   13.4367   13.4446   13.7360   14.0283   14.0883   14.1397   14.2848   14.5104   14.7514
   14.9107   15.0409   15.1704   15.2280   15.3066   15.5830   15.5928   15.6268   15.6309   15.6738
   15.6836   15.7316   15.7404   15.7817   15.7907   15.8330   15.8463   15.8866   15.9096   15.9275
   15.9337   15.9624   15.9909   16.0047   16.0470   16.0896   16.0957   16.1215   16.1851   16.2450
   16.2999   16.3591   16.4008   16.4356   16.4686   16.5091   16.5864   16.5974
   2  1  -26.3414  -26.2993  -26.2595  -26.2109  -26.1597  -26.0879  -26.0304  -25.9225  -25.8642  -25.7260
         -25.6632  -25.5053  -25.4027  -25.2547  -25.1075  -24.9684  -24.7793  -24.6271  -24.4186  -24.2398
  -24.0211  -23.8214  -23.5912  -23.3708  -23.1476  -22.8870  -22.6625  -22.3901  -22.1553  -22.0365
  -21.9976  -21.9601  -21.9161  -21.8786  -21.8691  -21.8083  -21.7888  -21.7594  -21.7501  -21.7132
  -21.6713  -21.6658  -21.6503  -21.6245  -21.6169  -21.5651  -21.5173  -21.5010  -21.4584  -21.4296
  -21.4101  -21.3831  -21.3331  -21.2769  -21.2655  -21.2389  -21.2350  -21.1662  -21.1285  -21.1267
  -21.0860  -21.0735  -21.0235  -21.0099  -20.9713  -20.9192  -20.8881  -19.8487  -19.8224  -19.7853
  -19.7627  -19.7339  -19.7013  -19.6555  -19.5799  -19.5499  -19.5465  -19.4381  -19.3976  -19.2962
  -19.2749  -19.2382  -19.1036  -19.0614  -19.0308  -18.9357  -18.8826  -18.7339  -18.7243  -18.7067
  -18.5623  -18.4989  -18.4570  -18.3313  -18.3196  -18.1736  -18.1096  -18.0848  -17.9693  -17.9284
  -17.8185  -17.7801  -17.7219  -17.6580  -17.5773  -17.5602  -17.5027  -17.4391  -17.4029  -17.3082
  -17.2407  -17.1077  -16.7676  -16.4211  -16.0866  -15.7941  -15.7392  -15.6836  -15.6283  -15.5370
  -15.5177  -15.3996  -15.3718  -15.3671  -15.2057  -15.1815  -15.0590  -15.0242  -15.0075  -14.8549
  -14.8102  -14.7187  -14.6627  -14.6382  -14.4990  -14.4527  -14.3843  -14.3207  -14.2901  -14.1684
  -14.1274  -14.0722  -14.0192  -13.9897  -13.8962  -13.8654  -13.8375  -13.8051  -13.7945  -13.7859
  -13.7476  -13.7459  -13.7183  -13.6800  -13.6596  -13.6416  -13.6376  -13.6147  -13.6059  -13.5847
  -13.5705  -13.5513  -13.5056  -13.4758  -13.4698  -13.4555  -13.4226  -13.4124  -13.3762  -13.3242
  -13.2774  -13.2699  -13.2537  -13.1905  -13.1818  -13.1214  -13.0883  -13.0355  -12.9567  -12.9047
  -12.8389  -12.7483  -12.6604  -12.6090  -12.5864  -12.5747  -12.5301  -12.4901  -12.4507  -12.4294
  -12.3722  -12.3131  -12.2159  -12.1791  -12.1727  -12.1557  -12.0830  -12.0585  -11.9005  -11.8594
  -11.8107  -11.7899  -11.7626  -11.6393  -11.5999  -11.5025  -11.4163  -11.3802  -11.3680  -11.3082
  -11.2548  -11.1694  -11.1217  -11.0412  -10.9957  -10.9797  -10.9023  -10.8571  -10.8107  -10.7909
  -10.7275  -10.7006  -10.6457  -10.6329  -10.6125  -10.5792  -10.5619  -10.4879  -10.4810  -10.4729
  -10.3170  -10.1600   -9.8189   -9.6800   -9.3580   -9.2162   -9.1435   -9.1132   -9.0850   -9.0698
   -9.0316   -9.0187   -8.9854   -8.9601   -8.9451   -8.8894   -8.8732   -8.8681   -8.8628   -8.8601
   -8.8326   -8.8195   -8.8006   -8.7858   -8.7813   -8.7721   -8.7677   -8.7488   -8.7346   -8.7115
   -8.7022   -8.6956   -8.6899   -8.6743   -8.6645   -8.6621   -8.6442   -8.6290   -8.5977   -8.5906
   -8.4710   -8.3789   -8.2757   -6.0553   -5.9797   -4.2220   -4.2151   -4.1661   -4.1585   -4.1202
   -4.1174   -4.0766   -4.0705   -4.0679   -4.0182   -4.0090   -3.9542   -3.9445   -3.9412   -3.8926
   -3.8688   -3.8141   -3.8020   -3.7961   -3.7747   -3.7273   -3.6948   -3.6809   -3.6528   -3.6338
   -3.5857   -3.5493   -3.5435   -3.5368   -3.5026   -3.4603   -3.3993   -3.3744   -3.3318   -3.3124
   -3.2681   -3.2243   -3.1495   -3.0034   -2.7329   -2.3739   -2.0511   -1.6790   -1.3138   -0.9544
   -0.5846   -0.2111    0.1355    0.5002    0.7927    1.0667    1.2763    1.5817    1.8288    1.9759
    2.2117    2.4202    2.5009    2.5601    2.6055    2.6485    2.6927    2.7471    2.7914    2.8388
    2.8780    2.9091    3.0244    3.1000    3.2245    3.2289    3.3467    3.4065    3.5016    3.5745
    3.6548    3.6893    3.7469    3.7582    3.7879    3.8614    3.8805    3.8844    3.9352    3.9593
    3.9648    4.0045    4.0239    4.0520    4.0635    4.0739    4.0824    4.1103    4.1117    4.1510
    4.1780    4.2050    4.2184    4.2264    4.2409    4.2635    4.2776    4.2946    4.3138    4.3375
    4.3588    4.3788    4.3935    4.4068    4.4671    4.4734    4.5032    4.5467    4.5756    4.6200
    4.6565    4.7112    4.7413    4.7521    4.8092    4.8304    4.8667    4.9133    4.9696    4.9786
    5.1710    5.3675    5.4133    5.5150    5.6987    5.7370    5.8328    5.8675    5.9681    6.0873
    6.2061    6.2509    6.4559    6.6246    6.6573    6.8661    7.0445    7.0827    7.2581    7.4251
    7.4936    7.6384    7.8167    7.9699    8.0141    8.1339    8.3032    8.3560    8.4075    8.5071
    8.5686    8.6170    8.6855    8.7409    8.8177    8.8404    8.9007    9.0055    9.1328    9.2818
    9.3166    9.4540    9.6691    9.7097    9.8597    9.8820   10.0701   10.1286   10.1601   10.3624
   10.4484   10.4945   10.5746   10.6132   10.6958   10.7672   10.8664   10.9366   10.9893   11.1102
   11.1706   11.2906   11.3162   11.4354   11.4439   11.5979   11.6429   11.7207   11.7826   11.8620
   11.9533   12.0167   12.1268   12.1383   12.2397   12.2664   12.3779   12.4357   12.4977   12.5209
   12.6220   12.7128   12.7214   12.7846   12.8151   12.8983   12.9239   12.9857   13.0733   13.0812
   13.1023   13.1498   13.1867   13.2168   13.2469   13.2845   13.2954   13.3243   13.3510   13.3885
   13.4264   13.4386   13.4426   13.7391   14.0310   14.0866   14.1380   14.2874   14.5130   14.7537
   14.9128   15.0429   15.1722   15.2297   15.3082   15.5783   15.5880   15.6217   15.6265   15.6689
   15.6785   15.7275   15.7339   15.7757   15.7859   15.8261   15.8419   15.8800   15.9004   15.9227
   15.9260   15.9538   15.9900   15.9948   16.0482   16.0796   16.0873   16.1238   16.1899   16.2507
   16.3064   16.3662   16.4088   16.4439   16.4774   16.5180   16.5948   16.6059
   3  1  -26.3393  -26.2972  -26.2574  -26.2088  -26.1576  -26.0857  -26.0283  -25.9204  -25.8621  -25.7239
         -25.6611  -25.5032  -25.4006  -25.2526  -25.1054  -24.9662  -24.7772  -24.6249  -24.4165  -24.2377
  -24.0190  -23.8193  -23.5892  -23.3688  -23.1456  -22.8850  -22.6606  -22.3882  -22.1536  -22.1276
  -22.0884  -22.0507  -22.0060  -21.9596  -21.8975  -21.8750  -21.8466  -21.7531  -21.7042  -21.6959
  -21.6638  -21.6467  -21.6197  -21.5863  -21.5762  -21.5405  -21.5335  -21.4753  -21.4282  -21.4112
  -21.4078  -21.3448  -21.3366  -21.2985  -21.2365  -21.2306  -21.1971  -21.1630  -21.1379  -21.1261
  -21.0710  -21.0569  -21.0244  -20.9953  -20.9696  -20.8986  -20.8762  -19.8445  -19.8162  -19.7719
  -19.7565  -19.7322  -19.7086  -19.6381  -19.5916  -19.5482  -19.5212  -19.4577  -19.3689  -19.2984
  -19.2945  -19.1992  -19.1372  -19.0315  -19.0288  -18.9607  -18.8304  -18.7804  -18.7235  -18.6566
  -18.6067  -18.4777  -18.4220  -18.3807  -18.2605  -18.2309  -18.0848  -18.0517  -18.0200  -17.8949
  -17.8460  -17.7799  -17.7296  -17.6469  -17.6358  -17.5715  -17.4924  -17.4377  -17.3295  -17.2357
  -17.1690  -17.1064  -16.7666  -16.4202  -16.0858  -15.8664  -15.7547  -15.7384  -15.6051  -15.5536
  -15.4472  -15.4319  -15.3991  -15.3014  -15.2453  -15.1375  -15.0700  -15.0570  -14.9592  -14.8663
  -14.7939  -14.7184  -14.6902  -14.6064  -14.4996  -14.4474  -14.3846  -14.3311  -14.2747  -14.1635
  -14.1276  -14.0722  -14.0199  -13.9845  -13.8897  -13.8673  -13.8362  -13.8102  -13.7918  -13.7676
  -13.7458  -13.7438  -13.7156  -13.6904  -13.6523  -13.6401  -13.6355  -13.6131  -13.6047  -13.5803
  -13.5681  -13.5593  -13.5136  -13.4777  -13.4735  -13.4533  -13.4305  -13.4126  -13.3842  -13.3320
  -13.2795  -13.2738  -13.2518  -13.1978  -13.1823  -13.1289  -13.0879  -13.0431  -12.9635  -12.9058
  -12.8441  -12.7558  -12.6677  -12.6093  -12.5849  -12.5735  -12.5368  -12.4888  -12.4493  -12.4366
  -12.3735  -12.3204  -12.2139  -12.1793  -12.1768  -12.1563  -12.0862  -12.0637  -11.9078  -11.8610
  -11.8093  -11.7968  -11.7607  -11.6461  -11.6032  -11.5089  -11.4173  -11.3845  -11.3705  -11.3062
  -11.2616  -11.1731  -11.1282  -11.0426  -11.0018  -10.9811  -10.9074  -10.8627  -10.8087  -10.7953
  -10.7352  -10.7034  -10.6546  -10.6330  -10.6144  -10.5864  -10.5648  -10.4944  -10.4841  -10.4799
  -10.3147  -10.1578   -9.8166   -9.6776   -9.3557   -9.2371   -9.2139   -9.2057   -9.1754   -9.1605
   -9.1183   -9.1055   -9.0392   -9.0245   -8.9830   -8.9417   -8.9295   -8.8657   -8.8375   -8.8303
   -8.7949   -8.7684   -8.7653   -8.7501   -8.7405   -8.7387   -8.7285   -8.7126   -8.7007   -8.6761
   -8.6725   -8.6718   -8.6661   -8.6587   -8.6416   -8.6331   -8.6163   -8.6065   -8.5745   -8.5694
   -8.5035   -8.3766   -8.2357   -6.0510   -5.9842   -4.2327   -4.2235   -4.1779   -4.1669   -4.1321
   -4.1246   -4.0874   -4.0812   -4.0784   -4.0334   -4.0150   -3.9677   -3.9590   -3.9559   -3.9074
   -3.8923   -3.8538   -3.8130   -3.7995   -3.7926   -3.7780   -3.7450   -3.7277   -3.6866   -3.6430
   -3.6282   -3.5694   -3.5405   -3.5373   -3.4424   -3.4139   -3.3354   -3.3037   -3.2721   -3.2078
   -3.1638   -3.1183   -3.0537   -3.0053   -2.7348   -2.3761   -2.0533   -1.6814   -1.3164   -0.9572
   -0.5876   -0.2142    0.1323    0.4970    0.7903    1.0654    1.2739    1.5788    1.8269    1.9755
    2.2091    2.4174    2.5080    2.5660    2.6073    2.6501    2.6963    2.7498    2.7913    2.8410
    2.8783    2.9111    3.0297    3.1057    3.2219    3.2348    3.3463    3.4135    3.5033    3.5821
    3.6580    3.6922    3.7558    3.7595    3.7960    3.8593    3.8915    3.8929    3.9402    3.9713
    3.9770    4.0161    4.0313    4.0613    4.0759    4.0869    4.0928    4.1217    4.1237    4.1641
    4.1864    4.2155    4.2286    4.2353    4.2520    4.2742    4.2884    4.3024    4.3226    4.3501
    4.3680    4.3849    4.3950    4.4200    4.4685    4.4776    4.5089    4.5629    4.5769    4.6086
    4.6570    4.7135    4.7455    4.7749    4.8081    4.8285    4.8352    4.9134    4.9642    5.0230
    5.1463    5.3907    5.4160    5.4846    5.7261    5.7477    5.8175    5.8539    5.9750    6.1377
    6.1846    6.2187    6.5193    6.5891    6.6272    6.9281    6.9837    7.0773    7.3191    7.3656
    7.4869    7.7028    7.7542    7.9625    8.0636    8.0878    8.2933    8.3720    8.3989    8.5210
    8.5881    8.6287    8.6982    8.7475    8.8212    8.8302    8.9040    9.0091    9.1367    9.2865
    9.3053    9.4594    9.6689    9.7049    9.8087    9.8878   10.0229   10.1263   10.1598   10.3231
   10.4865   10.5002   10.5657   10.6341   10.6753   10.7758   10.8843   10.9261   10.9719   11.1195
   11.1903   11.2715   11.3049   11.4536   11.4545   11.5791   11.6322   11.7331   11.7930   11.8483
   11.9430   12.0248   12.1267   12.1379   12.2301   12.2723   12.3680   12.4461   12.4891   12.5218
   12.6151   12.7047   12.7187   12.7917   12.8133   12.8905   12.9186   12.9830   13.0657   13.0762
   13.1093   13.1456   13.1795   13.2121   13.2399   13.2801   13.2887   13.3181   13.3460   13.3825
   13.4211   13.4364   13.4466   13.7483   14.0389   14.0815   14.1326   14.2953   14.5206   14.7605
   14.9192   15.0489   15.1776   15.2348   15.3128   15.5642   15.5736   15.6067   15.6134   15.6544
   15.6629   15.7143   15.7164   15.7571   15.7709   15.8088   15.8247   15.8655   15.8736   15.8948
   15.9109   15.9383   15.9617   15.9940   16.0423   16.0513   16.0713   16.1334   16.2033   16.2665
   16.3244   16.3859   16.4306   16.4670   16.5016   16.5428   16.6180   16.6296
   4  1  -26.3357  -26.2937  -26.2538  -26.2052  -26.1540  -26.0822  -26.0247  -25.9168  -25.8585  -25.7203
         -25.6575  -25.4996  -25.3970  -25.2490  -25.1018  -24.9627  -24.7737  -24.6214  -24.4130  -24.2342
  -24.0156  -23.8159  -23.5858  -23.3654  -23.1423  -22.8817  -22.6573  -22.3850  -22.2243  -22.1849
  -22.1515  -22.1468  -22.1013  -22.0543  -21.9918  -21.9409  -21.8723  -21.8460  -21.7962  -21.6760
  -21.6497  -21.6293  -21.5962  -21.5576  -21.5213  -21.4976  -21.4781  -21.4359  -21.4198  -21.4049
  -21.3793  -21.3333  -21.3060  -21.2516  -21.2335  -21.2138  -21.2044  -21.1245  -21.1223  -21.1104
  -21.0809  -21.0369  -21.0015  -20.9839  -20.9573  -20.8704  -20.8591  -19.8294  -19.8096  -19.7791
  -19.7294  -19.7265  -19.6865  -19.6590  -19.5655  -19.5454  -19.5271  -19.4212  -19.3952  -19.2919
  -19.2560  -19.2318  -19.0913  -19.0697  -19.0267  -18.8907  -18.8891  -18.7239  -18.7167  -18.7101
  -18.5356  -18.5270  -18.4147  -18.3284  -18.3265  -18.1644  -18.1248  -18.0755  -17.9717  -17.9405
  -17.8121  -17.7737  -17.7624  -17.7158  -17.6509  -17.5561  -17.4382  -17.4048  -17.2454  -17.1524
  -17.1051  -17.0852  -16.7648  -16.4187  -16.0845  -15.9398  -15.8269  -15.7375  -15.6756  -15.5032
  -15.4762  -15.3983  -15.3690  -15.3121  -15.2267  -15.1343  -15.0649  -15.0563  -14.9309  -14.8861
  -14.7545  -14.7205  -14.7182  -14.5655  -14.5312  -14.4058  -14.3861  -14.3614  -14.2371  -14.1910
  -14.0922  -14.0728  -14.0447  -13.9562  -13.9070  -13.8480  -13.8313  -13.8134  -13.7881  -13.7535
  -13.7415  -13.7368  -13.7118  -13.6994  -13.6513  -13.6333  -13.6315  -13.6109  -13.6022  -13.5744
  -13.5725  -13.5633  -13.5269  -13.4910  -13.4698  -13.4498  -13.4437  -13.4130  -13.3974  -13.3451
  -13.2917  -13.2714  -13.2486  -13.2102  -13.1828  -13.1413  -13.0874  -13.0556  -12.9744  -12.9088
  -12.8517  -12.7683  -12.6800  -12.6100  -12.5831  -12.5713  -12.5474  -12.4867  -12.4495  -12.4459
  -12.3756  -12.3326  -12.2106  -12.1897  -12.1753  -12.1559  -12.0929  -12.0709  -11.9200  -11.8640
  -11.8096  -11.8052  -11.7575  -11.6574  -11.6089  -11.5194  -11.4212  -11.3910  -11.3734  -11.3028
  -11.2726  -11.1793  -11.1390  -11.0459  -11.0115  -10.9829  -10.9156  -10.8722  -10.8059  -10.8020
  -10.7477  -10.7085  -10.6683  -10.6343  -10.6178  -10.5977  -10.5698  -10.5061  -10.4923  -10.4874
  -10.3108  -10.1540   -9.8127   -9.6738   -9.3518   -9.3370   -9.3048   -9.2729   -9.2581   -9.2120
   -9.2098   -9.1990   -9.1254   -9.1110   -9.0176   -9.0049   -8.9790   -8.8981   -8.8912   -8.8616
   -8.7845   -8.7778   -8.7612   -8.6961   -8.6891   -8.6816   -8.6697   -8.6677   -8.6537   -8.6427
   -8.6324   -8.6214   -8.6150   -8.6079   -8.5978   -8.5890   -8.5771   -8.5666   -8.5490   -8.5342
   -8.5116   -8.3690   -8.1879   -6.0439   -5.9916   -4.2505   -4.2383   -4.1959   -4.1834   -4.1522
   -4.1457   -4.1029   -4.1020   -4.0813   -4.0543   -4.0494   -3.9967   -3.9837   -3.9591   -3.9447
   -3.9291   -3.8950   -3.8786   -3.8448   -3.8272   -3.8031   -3.7935   -3.7508   -3.7224   -3.6657
   -3.6184   -3.5431   -3.5185   -3.4774   -3.3475   -3.3377   -3.3087   -3.1941   -3.1581   -3.0906
   -3.0469   -3.0087   -3.0005   -2.9426   -2.7381   -2.3798   -2.0570   -1.6855   -1.3208   -0.9617
   -0.5925   -0.2193    0.1270    0.4917    0.7863    1.0632    1.2700    1.5740    1.8237    1.9750
    2.2048    2.4127    2.5196    2.5757    2.6090    2.6536    2.7023    2.7540    2.7912    2.8445
    2.8786    2.9141    3.0385    3.1151    3.2169    3.2450    3.3457    3.4249    3.5060    3.5946
    3.6631    3.6967    3.7626    3.7709    3.8069    3.8590    3.9005    3.9112    3.9511    3.9909
    3.9951    4.0330    4.0464    4.0762    4.0959    4.1082    4.1109    4.1386    4.1458    4.1856
    4.2005    4.2325    4.2457    4.2510    4.2712    4.2920    4.3060    4.3166    4.3376    4.3696
    4.3827    4.3966    4.4002    4.4397    4.4728    4.4888    4.5172    4.5703    4.5815    4.6152
    4.6576    4.7155    4.7457    4.7842    4.8081    4.8240    4.8350    4.9134    4.9529    5.0700
    5.1241    5.3671    5.4440    5.4809    5.7081    5.7691    5.8132    5.8693    5.9875    6.1184
    6.2092    6.2175    6.5222    6.5916    6.6209    6.9060    7.0077    7.0682    7.2884    7.3989
    7.4753    7.6862    7.7749    7.9482    8.0115    8.1391    8.2490    8.3798    8.4210    8.5401
    8.6047    8.6455    8.7202    8.7631    8.8115    8.8297    8.9096    9.0153    9.1432    9.2867
    9.2944    9.4684    9.6607    9.7049    9.7355    9.8969    9.9552   10.1167   10.1649   10.2633
   10.5091   10.5415   10.5519   10.5953   10.7119   10.7901   10.8724   10.9083   10.9818   11.1348
   11.1904   11.2684   11.2869   11.4707   11.4727   11.5572   11.6147   11.7431   11.8101   11.8338
   11.9263   12.0310   12.1147   12.1542   12.2145   12.2778   12.3545   12.4611   12.4769   12.5206
   12.6056   12.6913   12.7125   12.7953   12.8193   12.8775   12.9090   12.9787   13.0533   13.0674
   13.1192   13.1396   13.1676   13.2048   13.2284   13.2729   13.2775   13.3080   13.3373   13.3723
   13.4110   13.4262   13.4611   13.7633   14.0504   14.0746   14.1239   14.3084   14.5331   14.7716
   14.9296   15.0586   15.1862   15.2429   15.3202   15.5407   15.5502   15.5824   15.5909   15.6311
   15.6372   15.6849   15.6955   15.7295   15.7408   15.7880   15.7901   15.8349   15.8397   15.8670
   15.8687   15.9147   15.9364   15.9902   16.0023   16.0193   16.0758   16.1492   16.2231   16.2896
   16.3506   16.4145   16.4622   16.5002   16.5366   16.5784   16.6515   16.6638
   5  1  -26.3308  -26.2887  -26.2488  -26.2002  -26.1490  -26.0772  -26.0197  -25.9118  -25.8535  -25.7153
         -25.6525  -25.4946  -25.3920  -25.2441  -25.0969  -24.9578  -24.7687  -24.6165  -24.4082  -24.2294
  -24.0107  -23.8111  -23.5810  -23.3607  -23.1376  -22.8770  -22.6528  -22.3807  -22.3220  -22.2823
  -22.2442  -22.1997  -22.1596  -22.1370  -22.0875  -22.0364  -21.9404  -21.8901  -21.8678  -21.7681
  -21.7202  -21.6447  -21.5848  -21.5055  -21.4942  -21.4566  -21.4209  -21.4001  -21.3873  -21.3775
  -21.3363  -21.2864  -21.2781  -21.2370  -21.2290  -21.1870  -21.1603  -21.1198  -21.1187  -21.0799
  -21.0334  -21.0134  -21.0043  -20.9606  -20.9280  -20.8462  -20.8300  -19.8120  -19.7956  -19.7687
  -19.7255  -19.7173  -19.6733  -19.6327  -19.5767  -19.5416  -19.4968  -19.4371  -19.3492  -19.2883
  -19.2874  -19.1915  -19.1216  -19.0232  -18.9981  -18.9515  -18.8275  -18.7697  -18.7190  -18.6300
  -18.5899  -18.4532  -18.4205  -18.3972  -18.2411  -18.2029  -18.1119  -18.0608  -18.0265  -17.8966
  -17.8463  -17.8003  -17.7700  -17.7311  -17.6688  -17.4664  -17.4340  -17.3166  -17.1575  -17.1020
  -17.0639  -16.9985  -16.7624  -16.4166  -16.0826  -16.0128  -15.8989  -15.7461  -15.7360  -15.5718
  -15.3984  -15.3976  -15.3773  -15.2920  -15.1975  -15.1517  -15.0572  -14.9932  -14.9868  -14.8192
  -14.8058  -14.7179  -14.6596  -14.6082  -14.4790  -14.4347  -14.3847  -14.3244  -14.2581  -14.1602
  -14.1035  -14.0735  -14.0232  -13.9641  -13.8888  -13.8574  -13.8232  -13.7942  -13.7827  -13.7515
  -13.7361  -13.7294  -13.7065  -13.6966  -13.6558  -13.6264  -13.6231  -13.6082  -13.5975  -13.5911
  -13.5687  -13.5553  -13.5454  -13.5094  -13.4647  -13.4621  -13.4446  -13.4160  -13.4131  -13.3633
  -13.3097  -13.2676  -13.2445  -13.2270  -13.1839  -13.1579  -13.0875  -13.0730  -12.9891  -12.9155
  -12.8597  -12.7856  -12.6971  -12.6117  -12.5831  -12.5681  -12.5591  -12.4844  -12.4650  -12.4430
  -12.3784  -12.3495  -12.2076  -12.2041  -12.1729  -12.1545  -12.1045  -12.0780  -11.9368  -11.8688
  -11.8249  -11.8018  -11.7530  -11.6731  -11.6170  -11.5338  -11.4309  -11.3985  -11.3749  -11.2988
  -11.2872  -11.1884  -11.1538  -11.0525  -11.0248  -10.9839  -10.9267  -10.8859  -10.8130  -10.7998
  -10.7648  -10.7163  -10.6863  -10.6391  -10.6238  -10.6105  -10.5765  -10.5230  -10.5084  -10.4925
  -10.3055  -10.1487   -9.8073   -9.6683   -9.4385   -9.4056   -9.3724   -9.3577   -9.3464   -9.3077
   -9.2946   -9.2144   -9.2043   -9.2002   -9.0970   -9.0840   -8.9735   -8.9638   -8.9571   -8.8559
   -8.8326   -8.8255   -8.7555   -8.7151   -8.7044   -8.6620   -8.6368   -8.6147   -8.6074   -8.5944
   -8.5719   -8.5641   -8.5535   -8.5479   -8.5427   -8.5303   -8.5222   -8.5066   -8.4966   -8.4703
   -8.4653   -8.3555   -8.1367   -6.0345   -6.0015   -4.2745   -4.2631   -4.2219   -4.2094   -4.1797
   -4.1722   -4.1396   -4.1288   -4.0938   -4.0854   -4.0769   -4.0396   -4.0289   -4.0049   -3.9958
   -3.9640   -3.9533   -3.9217   -3.9066   -3.8640   -3.8355   -3.8041   -3.7682   -3.7063   -3.6161
   -3.5691   -3.5474   -3.4316   -3.3789   -3.3417   -3.2421   -3.1983   -3.0787   -3.0394   -3.0131
   -2.9688   -2.9248   -2.8787   -2.8251   -2.7426   -2.3849   -2.0623   -1.6913   -1.3268   -0.9682
   -0.5994   -0.2264    0.1195    0.4842    0.7804    1.0599    1.2647    1.5671    1.8188    1.9743
    2.1988    2.4059    2.5356    2.5884    2.6095    2.6599    2.7105    2.7586    2.7917    2.8489
    2.8785    2.9180    3.0506    3.1282    3.2097    3.2593    3.3447    3.4406    3.5092    3.6118
    3.6698    3.7025    3.7689    3.7911    3.8185    3.8604    3.9098    3.9371    3.9665    4.0145
    4.0206    4.0529    4.0723    4.0960    4.1223    4.1352    4.1397    4.1623    4.1768    4.2137
    4.2220    4.2545    4.2706    4.2750    4.2986    4.3168    4.3290    4.3389    4.3591    4.3919
    4.4023    4.4142    4.4172    4.4634    4.4813    4.5064    4.5281    4.5769    4.5860    4.6372
    4.6585    4.7144    4.7457    4.7764    4.8069    4.8251    4.8606    4.9136    4.9420    5.0965
    5.1298    5.3254    5.4505    5.5201    5.6714    5.7636    5.8396    5.9075    5.9986    6.0667
    6.2216    6.2728    6.4575    6.6136    6.6662    6.8363    7.0557    7.0772    7.2228    7.4592
    7.4678    7.6217    7.8452    7.9281    7.9511    8.1561    8.2444    8.3583    8.4583    8.5681
    8.6220    8.6606    8.7411    8.7865    8.7947    8.8437    8.9176    9.0238    9.1521    9.2615
    9.3052    9.4808    9.6403    9.6484    9.7139    9.8745    9.9087   10.0994   10.1761   10.1907
   10.5130   10.5307   10.5421   10.6051   10.7685   10.8101   10.8242   10.8836   11.0234   11.1507
   11.1560   11.2605   11.3016   11.4639   11.4935   11.5579   11.5908   11.7330   11.8324   11.8349
   11.9038   12.0233   12.1113   12.1750   12.1952   12.2747   12.3443   12.4519   12.4899   12.5132
   12.5967   12.6729   12.7010   12.7912   12.8380   12.8597   12.8944   12.9731   13.0362   13.0546
   13.1230   13.1375   13.1512   13.1973   13.2126   13.2614   13.2643   13.2940   13.3249   13.3579
   13.3965   13.4121   13.4820   13.7839   14.0527   14.0774   14.1123   14.3262   14.5501   14.7867
   14.9435   15.0715   15.1975   15.2532   15.3294   15.5080   15.5180   15.5491   15.5592   15.5995
   15.6024   15.6482   15.6608   15.6967   15.6993   15.7427   15.7569   15.7853   15.8061   15.8131
   15.8470   15.8683   15.9289   15.9467   15.9567   16.0168   16.0885   16.1685   16.2467   16.3171
   16.3816   16.4483   16.4993   16.5394   16.5778   16.6203   16.6911   16.7043
   6  1  -26.3244  -26.2823  -26.2424  -26.1938  -26.1426  -26.0708  -26.0133  -25.9054  -25.8471  -25.7089
         -25.6461  -25.4882  -25.3856  -25.2377  -25.0905  -24.9514  -24.7624  -24.6102  -24.4019  -24.2231
  -24.0045  -23.8049  -23.5749  -23.3546  -23.1316  -22.8711  -22.6469  -22.4196  -22.3805  -22.3746
  -22.3413  -22.2962  -22.2498  -22.1839  -22.1385  -22.1312  -22.0352  -21.9843  -21.8622  -21.8608
  -21.8118  -21.6740  -21.6390  -21.5923  -21.4707  -21.3992  -21.3879  -21.3608  -21.3535  -21.3173
  -21.2767  -21.2588  -21.2364  -21.2236  -21.1837  -21.1443  -21.1372  -21.1136  -21.0681  -21.0548
  -21.0286  -20.9762  -20.9502  -20.9363  -20.9079  -20.8211  -20.7913  -19.7951  -19.7783  -19.7317
  -19.7218  -19.7204  -19.6617  -19.6093  -19.5444  -19.5366  -19.5116  -19.3967  -19.3634  -19.2835
  -19.2459  -19.2160  -19.0525  -19.0431  -19.0186  -18.8853  -18.8824  -18.7176  -18.6992  -18.6770
  -18.5235  -18.4924  -18.4171  -18.3457  -18.2885  -18.1437  -18.1409  -18.0896  -17.9758  -17.9527
  -17.8800  -17.8151  -17.7717  -17.7465  -17.5762  -17.4298  -17.3740  -17.2250  -17.1003  -17.0647
  -16.9740  -16.9090  -16.7592  -16.4139  -16.0852  -16.0802  -15.9701  -15.8160  -15.7342  -15.6401
  -15.4445  -15.3954  -15.3188  -15.2606  -15.2141  -15.0775  -15.0563  -15.0474  -14.9187  -14.8613
  -14.7501  -14.7177  -14.6591  -14.5938  -14.4803  -14.4183  -14.3848  -14.2978  -14.2695  -14.1362
  -14.1112  -14.0748  -13.9898  -13.9808  -13.8752  -13.8532  -13.8169  -13.7768  -13.7708  -13.7508
  -13.7328  -13.7278  -13.6992  -13.6806  -13.6602  -13.6196  -13.6183  -13.6148  -13.6008  -13.5905
  -13.5691  -13.5641  -13.5445  -13.5330  -13.4859  -13.4578  -13.4399  -13.4377  -13.4136  -13.3865
  -13.3327  -13.2659  -13.2473  -13.2380  -13.1886  -13.1753  -13.0954  -13.0890  -13.0061  -12.9284
  -12.8654  -12.8079  -12.7190  -12.6165  -12.5915  -12.5641  -12.5628  -12.4912  -12.4757  -12.4385
  -12.3820  -12.3709  -12.2273  -12.1995  -12.1712  -12.1528  -12.1207  -12.0838  -11.9581  -11.8758
  -11.8453  -11.7960  -11.7473  -11.6929  -11.6279  -11.5517  -11.4474  -11.4079  -11.3732  -11.3085
  -11.2906  -11.2004  -11.1724  -11.0639  -11.0413  -10.9833  -10.9401  -10.9037  -10.8254  -10.7941
  -10.7854  -10.7278  -10.7075  -10.6503  -10.6370  -10.6177  -10.5846  -10.5445  -10.5287  -10.4983
  -10.2986  -10.1419   -9.8004   -9.6614   -9.5404   -9.5068   -9.4725   -9.4580   -9.4044   -9.3911
   -9.3393   -9.3047   -9.2908   -9.1973   -9.1788   -9.1655   -9.0332   -9.0267   -8.9663   -8.8860
   -8.8787   -8.8487   -8.7518   -8.7481   -8.7354   -8.6789   -8.6546   -8.6176   -8.6124   -8.5312
   -8.5243   -8.4960   -8.4833   -8.4705   -8.4697   -8.4573   -8.4486   -8.4340   -8.4180   -8.4056
   -8.3869   -8.3314   -8.0838   -6.0232   -6.0133   -4.3053   -4.3004   -4.2548   -4.2470   -4.2199
   -4.2108   -4.1795   -4.1695   -4.1384   -4.1300   -4.1124   -4.0954   -4.0905   -4.0697   -4.0364
   -4.0098   -3.9791   -3.9679   -3.9497   -3.8770   -3.8135   -3.8090   -3.7366   -3.6612   -3.5531
   -3.5406   -3.4833   -3.3471   -3.3342   -3.2755   -3.1323   -3.0849   -3.0188   -2.9598   -2.9178
   -2.8444   -2.8002   -2.7550   -2.7478   -2.7033   -2.3916   -2.0691   -1.6987   -1.3347   -0.9764
   -0.6082   -0.2357    0.1099    0.4745    0.7726    1.0555    1.2580    1.5583    1.8119    1.9734
    2.1913    2.3969    2.5552    2.5990    2.6126    2.6693    2.7201    2.7626    2.7940    2.8537
    2.8777    2.9223    3.0661    3.1450    3.2000    3.2773    3.3434    3.4603    3.5126    3.6336
    3.6776    3.7092    3.7780    3.8163    3.8280    3.8632    3.9229    3.9690    3.9824    4.0403
    4.0535    4.0777    4.1071    4.1212    4.1540    4.1682    4.1776    4.1939    4.2164    4.2409
    4.2577    4.2816    4.3037    4.3084    4.3343    4.3475    4.3564    4.3710    4.3864    4.4131
    4.4279    4.4428    4.4477    4.4848    4.4978    4.5284    4.5480    4.5892    4.5984    4.6489
    4.6621    4.7189    4.7460    4.7849    4.8055    4.8239    4.8690    4.9143    4.9527    5.0946
    5.1688    5.2822    5.4587    5.5460    5.6496    5.7610    5.8600    5.9383    6.0035    6.0501
    6.2309    6.3168    6.4156    6.6066    6.7262    6.7812    7.0405    7.1069    7.1981    7.4393
    7.5001    7.5955    7.8610    7.9031    7.9447    8.1078    8.3037    8.3306    8.4846    8.5982
    8.6492    8.6747    8.7571    8.7594    8.8240    8.8759    8.9283    9.0348    9.1628    9.2306
    9.3192    9.4966    9.5523    9.6108    9.7291    9.7855    9.9210   10.0774   10.1101   10.1911
   10.4572   10.4962   10.5539   10.6704   10.7612   10.8284   10.8355   10.8533   11.0731   11.0956
   11.1826   11.2293   11.3434   11.4233   11.5219   11.5606   11.5850   11.6993   11.8500   11.8594
   11.8799   11.9970   12.1202   12.1647   12.2081   12.2551   12.3445   12.4273   12.4960   12.5188
   12.5913   12.6498   12.6829   12.7853   12.8371   12.8626   12.8755   12.9661   13.0147   13.0374
   13.1137   13.1304   13.1379   13.1902   13.1975   13.2421   13.2543   13.2773   13.3086   13.3395
   13.3776   13.3939   13.5085   13.8096   14.0387   14.0870   14.1076   14.3485   14.5711   14.8052
   14.9604   15.0867   15.2102   15.2645   15.3389   15.4666   15.4773   15.5067   15.5193   15.5578
   15.5606   15.6058   15.6144   15.6465   15.6590   15.6918   15.7093   15.7294   15.7521   15.7822
   15.7969   15.8496   15.8794   15.8906   15.9481   16.0245   16.1031   16.1892   16.2720   16.3465
   16.4149   16.4846   16.5392   16.5815   16.6220   16.6652   16.7336   16.7479
   7  1  -26.3165  -26.2745  -26.2346  -26.1860  -26.1348  -26.0629  -26.0055  -25.8975  -25.8393  -25.7011
         -25.6383  -25.4804  -25.3778  -25.2299  -25.0827  -24.9436  -24.7547  -24.6025  -24.3942  -24.2154
  -23.9969  -23.7973  -23.5674  -23.3472  -23.1242  -22.8638  -22.6398  -22.5168  -22.4768  -22.4385
  -22.3931  -22.3696  -22.3447  -22.2785  -22.2276  -22.1314  -22.1295  -22.0785  -21.9537  -21.9038
  -21.8552  -21.7640  -21.6804  -21.6319  -21.5558  -21.4413  -21.3894  -21.3346  -21.2867  -21.2507
  -21.2178  -21.2141  -21.2056  -21.1747  -21.1362  -21.1086  -21.1066  -21.0854  -21.0457  -20.9988
  -20.9768  -20.9465  -20.9259  -20.8911  -20.8758  -20.7930  -20.7476  -19.7705  -19.7622  -19.7143
  -19.7067  -19.6929  -19.6514  -19.5978  -19.5306  -19.5262  -19.4724  -19.4104  -19.3324  -19.2777
  -19.2551  -19.1510  -19.0950  -19.0131  -18.9853  -18.9280  -18.8021  -18.7471  -18.7131  -18.6128
  -18.5578  -18.4349  -18.4126  -18.3640  -18.2558  -18.2155  -18.0839  -18.0659  -18.0389  -17.9645
  -17.8958  -17.8569  -17.7619  -17.6565  -17.4824  -17.4240  -17.2800  -17.1319  -17.0950  -16.9734
  -16.8824  -16.8178  -16.7553  -16.4106  -16.1563  -16.0775  -16.0405  -15.8851  -15.7321  -15.7075
  -15.5097  -15.3938  -15.3240  -15.2385  -15.1357  -15.1096  -15.0553  -14.9989  -14.9200  -14.8425
  -14.7209  -14.7134  -14.6742  -14.5412  -14.5136  -14.3852  -14.3675  -14.3286  -14.2195  -14.1657
  -14.0769  -14.0653  -14.0134  -13.9410  -13.8912  -13.8188  -13.8091  -13.7696  -13.7672  -13.7474
  -13.7205  -13.7185  -13.6907  -13.6767  -13.6497  -13.6433  -13.6193  -13.6110  -13.5977  -13.5893
  -13.5818  -13.5617  -13.5597  -13.5321  -13.5144  -13.4678  -13.4502  -13.4313  -13.4141  -13.4135
  -13.3605  -13.2836  -13.2497  -13.2366  -13.2052  -13.1821  -13.1219  -13.0957  -13.0227  -12.9487
  -12.8677  -12.8349  -12.7455  -12.6312  -12.6020  -12.5598  -12.5581  -12.5152  -12.4727  -12.4333
  -12.3968  -12.3859  -12.2529  -12.1924  -12.1735  -12.1535  -12.1352  -12.0884  -11.9837  -11.8853
  -11.8698  -11.7886  -11.7406  -11.7167  -11.6419  -11.5727  -11.4697  -11.4204  -11.3680  -11.3309
  -11.2839  -11.2153  -11.1947  -11.0808  -11.0606  -10.9818  -10.9549  -10.9254  -10.8404  -10.8120
  -10.7849  -10.7457  -10.7294  -10.6705  -10.6532  -10.6234  -10.5927  -10.5704  -10.5520  -10.5049
  -10.2901  -10.1336   -9.7919   -9.6529   -9.6421   -9.6081   -9.5728   -9.5583   -9.5015   -9.4879
   -9.3961   -9.3824   -9.3308   -9.2623   -9.2488   -9.1886   -9.1055   -9.0990   -8.9576   -8.9439
   -8.9364   -8.8398   -8.7980   -8.7732   -8.7391   -8.7261   -8.6456   -8.6304   -8.6240   -8.5135
   -8.5082   -8.4342   -8.4264   -8.3973   -8.3841   -8.3755   -8.3698   -8.3598   -8.3445   -8.3239
   -8.3063   -8.2763   -8.0292   -6.0274   -6.0097   -4.3512   -4.3439   -4.3049   -4.2922   -4.2716
   -4.2644   -4.2349   -4.2308   -4.2044   -4.1988   -4.1728   -4.1501   -4.1212   -4.0973   -4.0916
   -4.0637   -3.9857   -3.9743   -3.9377   -3.8619   -3.8158   -3.7676   -3.6778   -3.5890   -3.5599
   -3.4542   -3.3901   -3.3537   -3.2320   -3.1685   -3.0294   -3.0183   -2.9662   -2.8393   -2.7944
   -2.7559   -2.7182   -2.6736   -2.6277   -2.5791   -2.3997   -2.0773   -1.7079   -1.3443   -0.9866
   -0.6191   -0.2469    0.0980    0.4625    0.7628    1.0497    1.2501    1.5474    1.8027    1.9722
    2.1824    2.3856    2.5765    2.5978    2.6290    2.6813    2.7297    2.7655    2.7990    2.8582
    2.8759    2.9266    3.0849    3.1651    3.1879    3.2984    3.3417    3.4832    3.5164    3.6595
    3.6860    3.7167    3.7893    3.8323    3.8461    3.8691    3.9406    3.9923    4.0093    4.0688
    4.0879    4.1114    4.1468    4.1538    4.1903    4.2065    4.2202    4.2368    4.2637    4.2706
    4.3021    4.3178    4.3433    4.3519    4.3754    4.3819    4.3939    4.4118    4.4162    4.4432
    4.4584    4.4823    4.4875    4.5029    4.5243    4.5594    4.5776    4.5988    4.6272    4.6465
    4.6681    4.7388    4.7481    4.8038    4.8092    4.8230    4.8522    4.9159    4.9888    5.0991
    5.1909    5.2568    5.4742    5.5203    5.6764    5.7655    5.8611    5.9216    6.0519    6.0632
    6.2460    6.2874    6.4496    6.6008    6.6811    6.8323    7.0234    7.0524    7.2581    7.4160
    7.4506    7.6521    7.8019    7.8734    8.0095    8.0529    8.2975    8.3721    8.5042    8.6214
    8.6809    8.6971    8.7216    8.7823    8.8431    8.9250    8.9449    9.0484    9.1696    9.2003
    9.3360    9.4497    9.5160    9.5743    9.6904    9.7491    9.9288   10.0225   10.0582   10.2071
   10.3781   10.4701   10.5770   10.6884   10.7378   10.8173   10.8664   10.8868   11.0324   11.1253
   11.1918   11.2148   11.3661   11.3902   11.5251   11.5560   11.6179   11.6531   11.8370   11.8747
   11.9004   11.9601   12.1243   12.1446   12.2222   12.2411   12.3510   12.3977   12.4692   12.5530
   12.5887   12.6224   12.6581   12.7786   12.8104   12.8486   12.8930   12.9573   12.9893   13.0165
   13.0999   13.1058   13.1257   13.1675   13.1966   13.2187   13.2437   13.2663   13.2886   13.3174
   13.3545   13.3719   13.5402   13.8397   14.0189   14.0714   14.1308   14.3746   14.5957   14.8264
   14.9792   15.1029   15.2224   15.2741   15.3459   15.4174   15.4284   15.4561   15.4718   15.5052
   15.5140   15.5524   15.5639   15.5954   15.6036   15.6380   15.6506   15.6785   15.7008   15.7250
   15.7745   15.8071   15.8149   15.8624   15.9494   16.0330   16.1177   16.2100   16.2975   16.3763
   16.4486   16.5215   16.5797   16.6243   16.6670   16.7110   16.7770   16.7925
   8  1  -26.3073  -26.2652  -26.2254  -26.1767  -26.1256  -26.0537  -25.9962  -25.8883  -25.8300  -25.6918
         -25.6291  -25.4711  -25.3686  -25.2207  -25.0735  -24.9345  -24.7455  -24.5934  -24.3851  -24.2064
  -23.9879  -23.7884  -23.5585  -23.3384  -23.1155  -22.8553  -22.6315  -22.6133  -22.5731  -22.5346
  -22.4889  -22.4419  -22.3821  -22.3518  -22.3221  -22.2238  -22.1723  -22.1231  -22.0463  -21.9956
  -21.8542  -21.8469  -21.7689  -21.6420  -21.6238  -21.5239  -21.4134  -21.3810  -21.2765  -21.2097
  -21.1824  -21.1682  -21.1468  -21.1118  -21.0992  -21.0733  -21.0445  -21.0326  -20.9900  -20.9509
  -20.9462  -20.8975  -20.8767  -20.8674  -20.8259  -20.7590  -20.7006  -19.7464  -19.7339  -19.7071
  -19.6939  -19.6518  -19.6320  -19.5795  -19.5236  -19.5083  -19.4521  -19.3783  -19.3356  -19.2708
  -19.1955  -19.1747  -19.0352  -19.0255  -19.0066  -18.8548  -18.8361  -18.7195  -18.6890  -18.6371
  -18.5020  -18.4565  -18.4050  -18.3264  -18.3017  -18.1531  -18.1380  -18.0776  -18.0423  -17.9792
  -17.9480  -17.7648  -17.7510  -17.5605  -17.4228  -17.3817  -17.1850  -17.0896  -17.0374  -16.8801
  -16.7900  -16.7505  -16.7250  -16.4067  -16.2265  -16.1099  -16.0742  -15.9533  -15.7749  -15.7290
  -15.5745  -15.3919  -15.3863  -15.1690  -15.1583  -15.0575  -15.0535  -14.9755  -14.9224  -14.7702
  -14.7658  -14.7164  -14.6063  -14.5790  -14.4564  -14.3906  -14.3854  -14.2865  -14.2209  -14.1442
  -14.0809  -14.0598  -13.9961  -13.9330  -13.8769  -13.8037  -13.7999  -13.7616  -13.7573  -13.7464
  -13.7100  -13.6973  -13.6817  -13.6789  -13.6766  -13.6314  -13.6301  -13.6204  -13.6020  -13.5943
  -13.5777  -13.5720  -13.5546  -13.5476  -13.5191  -13.5008  -13.4525  -13.4354  -13.4250  -13.4128
  -13.3913  -13.3147  -13.2538  -13.2422  -13.2116  -13.1858  -13.1520  -13.1112  -13.0346  -12.9753
  -12.8696  -12.8643  -12.7762  -12.6582  -12.6070  -12.5576  -12.5525  -12.5398  -12.4678  -12.4302
  -12.4239  -12.3900  -12.2829  -12.1924  -12.1815  -12.1580  -12.1376  -12.0913  -12.0133  -11.8992
  -11.8966  -11.7797  -11.7440  -11.7333  -11.6589  -11.5961  -11.4968  -11.4365  -11.3619  -11.3552
  -11.2768  -11.2324  -11.2204  -11.1030  -11.0827  -10.9861  -10.9650  -10.9501  -10.8586  -10.8401
  -10.7784  -10.7694  -10.7500  -10.6969  -10.6709  -10.6356  -10.6026  -10.5977  -10.5752  -10.5112
  -10.2802  -10.1238   -9.7819   -9.7436   -9.7091   -9.6729   -9.6586   -9.6428   -9.5987   -9.5848
   -9.4881   -9.4745   -9.3471   -9.3334   -9.3206   -9.1802   -9.1784   -9.1737   -9.0056   -8.9980
   -8.9472   -8.8526   -8.8293   -8.8170   -8.7734   -8.7285   -8.6520   -8.6406   -8.6350   -8.5069
   -8.5005   -8.4017   -8.3864   -8.3316   -8.3194   -8.3099   -8.2859   -8.2747   -8.2600   -8.2419
   -8.2174   -8.1888   -7.9731   -6.0420   -5.9957   -4.4144   -4.3961   -4.3676   -4.3574   -4.3500
   -4.3258   -4.3113   -4.2897   -4.2726   -4.2532   -4.2282   -4.2090   -4.1757   -4.1048   -4.0970
   -4.0665   -3.9827   -3.9820   -3.8995   -3.8239   -3.8198   -3.7059   -3.6049   -3.5680   -3.5074
   -3.3625   -3.3610   -3.2923   -3.1264   -3.0588   -3.0362   -2.9044   -2.8483   -2.7642   -2.7168
   -2.6694   -2.5908   -2.5456   -2.4998   -2.4530   -2.4093   -2.0871   -1.7186   -1.3556   -0.9986
   -0.6320   -0.2603    0.0840    0.4483    0.7507    1.0422    1.2411    1.5343    1.7908    1.9702
    2.1724    2.3720    2.5807    2.6107    2.6505    2.6940    2.7365    2.7697    2.8065    2.8615
    2.8729    2.9303    3.1067    3.1728    3.1890    3.3194    3.3425    3.5044    3.5246    3.6890
    3.6946    3.7253    3.8012    3.8324    3.8774    3.8808    3.9600    4.0030    4.0516    4.0945
    4.1223    4.1555    4.1871    4.1959    4.2305    4.2481    4.2663    4.2921    4.3014    4.3224
    4.3474    4.3693    4.3876    4.4038    4.4138    4.4314    4.4385    4.4509    4.4609    4.4841
    4.4962    4.5230    4.5286    4.5405    4.5593    4.6006    4.6053    4.6140    4.6538    4.6622
    4.6800    4.7478    4.7659    4.8065    4.8197    4.8313    4.8494    4.9185    5.0290    5.1131
    5.1723    5.2724    5.4678    5.5048    5.7082    5.7903    5.8198    5.9296    6.0804    6.1140
    6.2295    6.2713    6.5105    6.6011    6.6124    6.9064    6.9835    7.0069    7.3289    7.3836
    7.3942    7.7246    7.7385    7.8400    7.9833    8.0939    8.2598    8.4401    8.5217    8.6422
    8.6774    8.7017    8.7339    8.8173    8.8605    8.9518    8.9941    9.0645    9.1413    9.2023
    9.3433    9.3557    9.5314    9.5389    9.5919    9.7722    9.9220    9.9327   10.0496   10.2199
   10.2947   10.4454   10.6044   10.6136   10.7779   10.8002   10.9017   10.9278   10.9802   11.1496
   11.1738   11.2510   11.3089   11.4290   11.4850   11.5945   11.6002   11.6509   11.7993   11.8855
   11.9257   11.9407   12.0932   12.1552   12.1814   12.2783   12.3560   12.3666   12.4348   12.5814
   12.5883   12.5978   12.6288   12.7700   12.7802   12.8191   12.9173   12.9472   12.9612   12.9950
   13.0764   13.0846   13.1040   13.1399   13.1852   13.1916   13.2219   13.2630   13.2757   13.2975
   13.3273   13.3466   13.5764   13.8737   13.9951   14.0483   14.1621   14.4041   14.6229   14.8491
   14.9982   15.1174   15.2302   15.2772   15.3448   15.3614   15.3714   15.3992   15.4162   15.4467
   15.4593   15.4925   15.5076   15.5412   15.5439   15.5855   15.5904   15.6217   15.6575   15.6774
   15.7325   15.7459   15.7728   15.8522   15.9504   16.0406   16.1315   16.2299   16.3223   16.4055
   16.4817   16.5579   16.6196   16.6666   16.7116   16.7565   16.8202   16.8368
   9  1  -26.2966  -26.2545  -26.2147  -26.1661  -26.1149  -26.0430  -25.9856  -25.8776  -25.8194  -25.6811
         -25.6184  -25.4605  -25.3579  -25.2100  -25.0629  -24.9239  -24.7350  -24.5829  -24.3747  -24.1960
  -23.9776  -23.7781  -23.5483  -23.3283  -23.1055  -22.8454  -22.7090  -22.6688  -22.6305  -22.6218
  -22.5840  -22.5367  -22.4714  -22.4165  -22.3476  -22.3169  -22.2655  -22.1386  -22.1136  -22.0871
  -21.9442  -21.8576  -21.8375  -21.7288  -21.6147  -21.6075  -21.4940  -21.3718  -21.3508  -21.2360
  -21.2004  -21.0944  -21.0904  -21.0773  -21.0434  -21.0097  -20.9841  -20.9716  -20.9377  -20.8976
  -20.8819  -20.8571  -20.8359  -20.8160  -20.7775  -20.7188  -20.6498  -19.7179  -19.7038  -19.6987
  -19.6622  -19.6473  -19.5782  -19.5570  -19.5154  -19.4892  -19.4440  -19.3514  -19.2808  -19.2629
  -19.2199  -19.1268  -19.0585  -18.9993  -18.9450  -18.8939  -18.7790  -18.7357  -18.6670  -18.5964
  -18.5264  -18.4148  -18.4007  -18.3696  -18.2371  -18.2091  -18.1304  -18.0688  -18.0568  -18.0469
  -17.8587  -17.7407  -17.6642  -17.4630  -17.4144  -17.2860  -17.0947  -17.0777  -16.9419  -16.7856
  -16.7468  -16.6943  -16.6316  -16.4022  -16.2954  -16.1781  -16.0704  -16.0205  -15.8408  -15.7261
  -15.6384  -15.4482  -15.3897  -15.2279  -15.0778  -15.0536  -15.0309  -14.9769  -14.8461  -14.8183
  -14.7162  -14.6945  -14.6263  -14.5357  -14.4320  -14.3919  -14.3845  -14.2553  -14.2254  -14.0992
  -14.0879  -14.0738  -13.9553  -13.9459  -13.8386  -13.8111  -13.7910  -13.7549  -13.7438  -13.7247
  -13.7152  -13.6992  -13.6981  -13.6711  -13.6681  -13.6597  -13.6333  -13.6279  -13.6053  -13.5933
  -13.5819  -13.5677  -13.5624  -13.5473  -13.5379  -13.5053  -13.4873  -13.4362  -13.4264  -13.4191
  -13.4013  -13.3512  -13.2867  -13.2352  -13.2055  -13.1970  -13.1777  -13.1374  -13.0402  -13.0064
  -12.9032  -12.8659  -12.8099  -12.6925  -12.6105  -12.5848  -12.5451  -12.5392  -12.4681  -12.4540
  -12.4227  -12.3926  -12.3166  -12.2205  -12.1743  -12.1612  -12.1342  -12.0912  -12.0464  -11.9304
  -11.9127  -11.7767  -11.7667  -11.7283  -11.6774  -11.6211  -11.5279  -11.4562  -11.3870  -11.3493
  -11.2757  -11.2494  -11.2456  -11.1299  -11.1077  -11.0047  -10.9803  -10.9602  -10.8810  -10.8697
  -10.8056  -10.7732  -10.7633  -10.7258  -10.6917  -10.6574  -10.6342  -10.6133  -10.5896  -10.5161
  -10.2687  -10.1125   -9.8446   -9.8097   -9.7728   -9.7704   -9.7584   -9.6959   -9.6816   -9.6312
   -9.5804   -9.5669   -9.4329   -9.4190   -9.3090   -9.2569   -9.2502   -9.1666   -9.0708   -9.0627
   -8.9353   -8.9132   -8.8655   -8.8217   -8.8171   -8.7162   -8.6801   -8.6629   -8.6227   -8.5108
   -8.4986   -8.3822   -8.3557   -8.2960   -8.2614   -8.2458   -8.2007   -8.1908   -8.1686   -8.1513
   -8.1246   -8.0935   -7.9150   -6.0574   -5.9813   -4.4916   -4.4674   -4.4575   -4.4391   -4.4166
[...]
  -17.7419  -17.6567  -17.5201  -17.4363  -17.3153  -17.2240  -17.1200  -17.0139  -16.9486  -16.8200
  -16.7728  -16.6258  -16.6117  -16.5599  -16.4985  -16.4670  -16.4473  -16.4394  -16.3772  -16.3636
  -16.3193  -16.3010  -16.2886  -16.2690  -16.2657  -16.1998  -16.1720  -16.1408  -16.1261  -16.1034
  -16.0488  -16.0122  -15.9965  -15.9746  -15.9120  -15.8837  -15.7985  -15.7701  -15.7468  -15.7249
  -15.6494  -15.6123  -15.6048  -15.5472  -15.4732  -15.4472  -15.4306  -15.3690  -15.3130  -15.2548
  -15.2523  -15.1807  -15.1200  -15.0931  -15.0395  -14.9744  -14.9179  -14.8960  -14.8136  -14.7968
  -14.7216  -14.7046  -14.6350  -14.5908  -14.5533  -14.4804  -14.4527  -14.3948  -14.3401  -14.2903
  -14.2561  -14.2118  -14.1329  -14.1171  -14.0617  -14.0236  -13.9737  -13.8962  -13.8569  -13.8168
  -13.7718  -13.7383  -13.7026  -13.6096  -13.5870  -13.5815  -13.5415  -13.5002  -13.4676  -13.4599
  -13.4112  -13.3524  -13.3184  -13.2636  -13.2226  -13.1994  -13.1412  -13.0303  -12.9530  -12.8485
  -12.8080  -12.7462  -12.7183  -12.7059  -12.6826  -12.6595  -12.6587  -12.6304  -12.5995  -12.5969
  -12.5834  -12.5729  -12.5563  -12.5476  -12.5278  -12.5226  -12.5007  -12.4784  -12.4658  -12.4525
  -12.4337  -12.3885  -12.3092  -12.3029  -12.2628  -12.2316  -12.2241  -12.2127  -12.1867  -12.1806
  -12.1635  -12.1410  -12.1279  -12.1049  -12.0931  -12.0667  -12.0113  -12.0026  -11.9867  -11.9685
  -11.8357  -11.8043  -11.7854  -11.7793  -11.7640  -11.6990  -11.6210  -11.5699  -11.5631  -11.4922
  -11.4812  -11.4463  -11.2814  -11.2541  -11.2402  -11.1065  -11.0606  -11.0154  -10.9037  -10.8206
  -10.7165  -10.6470  -10.5140  -10.4459  -10.3094  -10.2108  -10.1081  -10.0103   -9.9255   -9.7299
   -9.7248   -9.5411   -9.5307   -9.3408   -9.2460   -9.0870   -9.0471   -8.8868   -8.7489   -8.6008
   -8.5480   -8.3978   -8.2731   -8.1124   -8.0658   -7.8998   -7.8603   -7.7135   -7.6379   -7.5836
   -7.4856   -7.4801   -7.3363   -7.2344   -5.2999   -5.1631   -5.1351   -5.0058   -4.9742   -4.8266
   -4.7557   -4.6084   -4.5037   -4.3647   -4.2743   -4.1272   -3.9718   -3.8290   -3.7352   -3.5810
   -3.4208   -3.2651   -3.1627   -2.9950   -2.8607   -2.6856   -2.5810   -2.3961   -2.3143   -2.1182
   -2.0058   -1.8007   -1.7677   -1.5506   -1.4562   -1.2312   -1.2240   -0.9871   -0.9377   -0.6999
   -0.6941   -0.4555   -0.4460   -0.2193   -0.1966   -0.0177    0.0470    0.2148    0.2524    0.3820
    0.4869    0.6042    0.6577    0.7456    0.8780    0.9418    1.0209    1.0632    1.2144    1.2276
    1.3294    1.3383    1.4426    1.5015    1.5146    1.5838    1.6087    1.6108    1.7248    1.8020
    1.8717    1.9109    2.1174    2.1899    2.7707    2.8878    4.0019    4.0653    4.1380    4.1555
    4.1900    4.2183    4.2727    4.2840    4.3216    4.3438    4.4166    4.4276    4.4717    4.4881
    4.5803    4.5997    4.6335    4.6789    4.7656    4.8047    4.8349    4.8737    4.9453    5.0324
    5.0527    5.1691    5.2554    5.2974    5.4445    5.5570    5.6690    5.7735    5.8647    6.0031
    6.0282    6.1177    6.1862    6.2891    6.3960    6.4328    6.5268    6.6294    6.7465    6.7809
    6.8733    6.9883    7.0882    7.1267    7.2307    7.3716    7.4411    7.4483    7.6123    7.7371
    7.7932    7.8122    7.9736    8.0419    8.1049    8.1241    8.2797    8.3277    8.3854    8.4839
    8.5776    8.6008    8.7267    8.7568    8.8193    8.8425    8.8811    8.8906    8.9017    8.9142
    8.9314    8.9525    8.9788    9.0148    9.0731    9.1028    9.1643    9.2026    9.2304    9.2476
    9.2822    9.2906    9.3132    9.3324    9.3579    9.3799    9.4052    9.4236    9.4649    9.4762
    9.5417    9.5588    9.6227    9.6743    9.6777    9.7126    9.7239    9.7514    9.7829    9.7951
    9.8454    9.8600    9.9228    9.9620    9.9890   10.0361   10.0427   10.0698   10.0906   10.1164
   10.1441   10.1934   10.2520   10.2702   10.3442   10.3754   10.4191   10.4949   10.5346   10.5916
   10.6352   10.6754   10.6848   10.7088   10.7642   10.8248   10.8477   10.8770   10.9378   10.9471
   10.9647   11.0201   11.0470   11.0560   11.1172   11.1493   11.2220   11.2774   11.2994   11.3619
   11.4884   11.6949   11.7067   11.7281   11.7727   11.7792   11.8244   11.8500   11.8909   11.9301
   11.9987   12.0225   12.1425   12.2875   12.3271   12.5298   12.6013   12.7887   12.8894   13.0507
   13.1910   13.3460   13.4460   13.6950   13.7701   14.1562   14.2149   14.4215   14.4685   14.6791
   14.7437   14.9653   15.0015   15.2268   15.2412   15.4733   15.4873   15.7087   15.7266   15.9158
   15.9513   16.0937   16.1596   16.2638   16.3404   16.4209   16.5133   16.5340   16.6358   16.6688
   16.7208   16.7617   16.7830   16.8070   16.8882   16.9718   17.0115   17.0557
  41  1  -25.3056  -25.2635  -25.2237  -25.1752  -25.1245  -25.0803  -25.0529  -25.0383  -24.9984  -24.9965
         -24.9498  -24.8989  -24.8889  -24.8322  -24.8272  -24.7706  -24.6945  -24.6628  -24.6344  -24.6059
  -24.4779  -24.4679  -24.4075  -24.3782  -24.2506  -24.2331  -24.1505  -24.0897  -24.0051  -23.9549
  -23.8615  -23.7727  -23.7287  -23.6182  -23.5390  -23.4197  -23.3910  -23.2470  -23.1886  -23.0366
  -23.0147  -22.8447  -22.8031  -22.6232  -22.6101  -22.4131  -22.3871  -22.2006  -22.1757  -21.9612
  -21.9523  -21.7395  -21.7109  -21.4954  -21.4825  -21.2613  -21.2352  -21.0095  -21.0008  -20.7945
  -20.7432  -20.5679  -20.5286  -20.4130  -20.3133  -20.2892  -20.1152  -20.0043  -19.0628  -18.9784
  -18.9009  -18.8038  -18.6859  -18.5813  -18.4568  -18.3503  -18.2121  -18.1111  -17.9822  -17.8870
  -17.7357  -17.6561  -17.5077  -17.4411  -17.2882  -17.2430  -17.0772  -17.0490  -16.8843  -16.8771
  -16.6998  -16.6927  -16.5373  -16.5165  -16.4771  -16.4631  -16.4164  -16.4050  -16.3907  -16.3615
  -16.3577  -16.3508  -16.2850  -16.2826  -16.2243  -16.2093  -16.1893  -16.1770  -16.0959  -16.0953
  -16.0630  -16.0435  -15.9989  -15.9733  -15.9326  -15.8464  -15.8175  -15.8040  -15.7141  -15.7068
  -15.6726  -15.6586  -15.5628  -15.5332  -15.5142  -15.4743  -15.3806  -15.3611  -15.3267  -15.2936
  -15.2188  -15.1759  -15.1585  -15.0846  -15.0261  -14.9657  -14.9420  -14.8935  -14.8025  -14.7916
  -14.7314  -14.7044  -14.6334  -14.5857  -14.5605  -14.5025  -14.4449  -14.3782  -14.3449  -14.2973
  -14.2469  -14.2159  -14.1319  -14.1226  -14.0552  -14.0289  -13.9683  -13.9018  -13.8587  -13.8100
  -13.7736  -13.7456  -13.6518  -13.6357  -13.6091  -13.5449  -13.5320  -13.5203  -13.4351  -13.4188
  -13.4166  -13.3898  -13.3299  -13.3185  -13.2852  -13.2003  -13.1409  -13.0310  -12.9513  -12.8499
  -12.8048  -12.7368  -12.7109  -12.7064  -12.6762  -12.6508  -12.6478  -12.6194  -12.5958  -12.5883
  -12.5780  -12.5652  -12.5468  -12.5357  -12.5290  -12.5168  -12.4987  -12.4707  -12.4582  -12.4436
  -12.4297  -12.3816  -12.3170  -12.3037  -12.2689  -12.2478  -12.2244  -12.2129  -12.1996  -12.1993
  -12.1734  -12.1540  -12.1333  -12.1138  -12.0958  -12.0801  -12.0158  -11.9989  -11.9800  -11.9739
  -11.8502  -11.8197  -11.7791  -11.7649  -11.7465  -11.7051  -11.6205  -11.5839  -11.5812  -11.4935
  -11.4644  -11.4327  -11.3003  -11.2725  -11.2290  -11.0887  -11.0766  -10.9997  -10.9228  -10.8388
  -10.6991  -10.6297  -10.5325  -10.4644  -10.2926  -10.1939  -10.1260  -10.0281   -9.9090   -9.7421
   -9.7137   -9.5477   -9.5250   -9.3577   -9.2305   -9.0714   -9.0633   -8.9031   -8.7339   -8.5856
   -8.5635   -8.4135   -8.2582   -8.0972   -8.0812   -7.9156   -7.8447   -7.6972   -7.6543   -7.5663
   -7.4974   -7.4682   -7.3549   -7.2533   -5.2695   -5.1637   -5.1330   -5.0344   -4.9451   -4.8545
   -4.7252   -4.6378   -4.4746   -4.3928   -4.2425   -4.1581   -3.9410   -3.8588   -3.7016   -3.6136
   -3.3874   -3.2976   -3.1270   -3.0298   -2.8239   -2.7213   -2.5429   -2.4330   -2.2742   -2.1570
   -1.9650   -1.8401   -1.7247   -1.5921   -1.4130   -1.2729   -1.1790   -1.0307   -0.8922   -0.7381
   -0.6529   -0.4915   -0.4080   -0.2425   -0.1711    0.0003    0.0311    0.2052    0.2635    0.4314
    0.4399    0.6102    0.6528    0.7945    0.8314    0.9742    0.9898    1.1114    1.1689    1.2748
    1.2928    1.3769    1.4573    1.4897    1.5618    1.5641    1.6305    1.6594    1.6808    1.7576
    1.8279    1.8651    2.1179    2.1851    2.7754    2.8815    4.0019    4.0658    4.1399    4.1615
    4.1837    4.2166    4.2777    4.2993    4.3050    4.3391    4.4313    4.4403    4.4640    4.4702
    4.6003    4.6061    4.6321    4.6596    4.7882    4.8042    4.8273    4.8753    4.9700    5.0110
    5.0467    5.1853    5.2294    5.2805    5.4680    5.5431    5.6761    5.7840    5.8575    6.0034
    6.0191    6.1177    6.1938    6.3374    6.3517    6.4199    6.5372    6.6894    6.6997    6.7608
    6.8838    7.0436    7.0694    7.1034    7.2260    7.4066    7.4254    7.4514    7.5995    7.7451
    7.7798    7.8457    7.9626    8.0607    8.0823    8.1580    8.2939    8.3242    8.3476    8.5388
    8.5689    8.6004    8.7486    8.7891    8.8141    8.8552    8.8982    8.9087    8.9275    8.9446
    8.9600    8.9866    9.0025    9.0313    9.0969    9.1481    9.1769    9.2249    9.2706    9.2926
    9.2982    9.3266    9.3332    9.3676    9.3767    9.4155    9.4240    9.4535    9.4757    9.4975
    9.5153    9.5786    9.6129    9.6349    9.6846    9.6969    9.7052    9.7262    9.7413    9.7669
    9.8064    9.8564    9.8739    9.9133    9.9439    9.9927   10.0145   10.0534   10.0545   10.0798
   10.1096   10.1574   10.2232   10.2621   10.3276   10.3938   10.4382   10.4856   10.5466   10.6263
   10.6714   10.6750   10.6963   10.7315   10.7887   10.8247   10.8350   10.8765   10.9228   10.9453
   10.9637   11.0091   11.0242   11.0456   11.1023   11.1386   11.2110   11.2785   11.3013   11.3545
   11.5067   11.6770   11.6906   11.7369   11.7595   11.7698   11.8088   11.8324   11.8742   11.9117
   11.9947   12.0320   12.1162   12.2959   12.3252   12.4910   12.6523   12.7369   12.9501   12.9901
   13.2365   13.3036   13.4648   13.6796   13.7802   14.1453   14.2297   14.4039   14.4862   14.6609
   14.7606   14.9489   15.0168   15.2124   15.2550   15.4608   15.4993   15.7158   15.7195   15.9254
   15.9420   16.1025   16.1515   16.2717   16.3332   16.4281   16.5070   16.5407   16.6421   16.6632
   16.7269   16.7677   16.7779   16.8129   16.8835   16.9675   17.0072   17.0515

siesta: Program's energy decomposition (eV):
siesta: Ebs     =     -8650.062159
siesta: Eions   =     43073.118743
siesta: Ena     =     13869.888359
siesta: Ekin    =     14449.398691
siesta: Enl     =      -403.694021
siesta: Eso     =         0.000000
siesta: Edftu   =         0.000000
siesta: DEna    =       434.125849
siesta: DUscf   =        13.560659
siesta: DUext   =         0.000000
siesta: Exc     =     -6270.603175
siesta: eta*DQ  =         0.000000
siesta: Emadel  =         0.000000
siesta: Emeta   =         0.000000
siesta: Emolmec =         0.000000
siesta: Ekinion =         0.000000
siesta: Eharris =    -20980.442381
siesta: Etot    =    -20980.442380
siesta: FreeEng =    -20980.473549

siesta: Final energy (eV):
siesta:  Band Struct. =   -8650.062159
siesta:       Kinetic =   14449.398691
siesta:       Hartree =  129669.334562
siesta:       Edftu   =       0.000000
siesta:       Eso     =       0.000000
siesta:    Ext. field =       0.000000
siesta:   Exch.-corr. =   -6270.603175
siesta:  Ion-electron = -274241.813724
siesta:       Ion-ion =  115413.241266
siesta:       Ekinion =       0.000000
siesta:         Total =  -20980.442380
siesta:         Fermi =      -6.031967

siesta: Atomic forces (eV/Ang):
siesta:      1   -0.387539   -0.170828   -0.006040
siesta:      2   -0.202262    2.291006   -1.442741
siesta:      3   -0.298598    0.936878   -0.199765
siesta:      4   -0.150904   -0.762193   -0.095537
siesta:      5   -0.159697   -0.449196   -1.477195
siesta:      6   -0.523110    0.049447   -1.476668
siesta:      7   -0.511734    0.200807   -0.101250
siesta:      8    0.234358   -0.520880   -0.073205
siesta:      9    0.400601   -0.632844   -1.476043
siesta:     10   -1.044464    0.303418   -1.507372
siesta:     11   -0.036550   -0.246927   -0.106032
siesta:     12    0.258437   -0.283396   -0.078380
siesta:     13    0.314972   -0.299211   -1.468911
siesta:     14   -0.342288   -0.213412   -1.468401
siesta:     15   -0.270052   -0.187274   -0.068612
siesta:     16    0.262589   -0.136438   -0.081069
siesta:     17    0.375703   -0.156883   -1.468540
siesta:     18   -0.230275   -0.389105   -1.471231
siesta:     19   -0.233022   -0.330293   -0.078592
siesta:     20    0.366353    0.022609   -0.100468
siesta:     21    0.644633    0.285954   -1.475255
siesta:     22   -0.317683   -0.685568   -1.480843
siesta:     23    0.121005   -0.170949   -0.090683
siesta:     24    0.155527   -0.100130   -0.092629
siesta:     25    0.402219    0.299114   -1.488129
siesta:     26    0.213943   -0.159235   -1.455110
siesta:     27    0.143230   -0.246290   -0.087272
siesta:     28    0.142229   -0.344644   -0.092023
siesta:     29    0.218179    0.642248   -1.504982
siesta:     30    0.286598   -0.291498   -1.473302
siesta:     31    0.149554    0.056422   -0.083518
siesta:     32    0.196656   -0.050091   -0.098487
siesta:     33    0.045727    0.461954   -1.483702
siesta:     34    0.254332    0.009678   -1.456306
siesta:     35    0.323078   -0.132698   -0.086499
siesta:     36    0.319061   -0.091985   -0.083586
siesta:     37   -0.616693    0.900439   -1.510369
siesta:     38    0.734314   -0.309299   -1.483439
siesta:     39    0.225969    0.043521   -0.093857
siesta:     40   -0.396340    0.345222   -0.092528
siesta:     41   -0.165496    0.290200   -1.454535
siesta:     42    0.910396   -0.027231   -1.516523
siesta:     43   -0.328951    0.217758   -0.091413
siesta:     44    0.024839    0.153213   -0.112412
siesta:     45   -0.795134    0.163102   -1.487035
siesta:     46    0.961327    0.326100   -1.505383
siesta:     47   -0.519916    0.065221   -0.108970
siesta:     48    0.160671    0.196886   -0.091713
siesta:     49   -0.425222    0.039768   -1.478512
siesta:     50    0.037452    0.216855   -1.452453
siesta:     51    0.220124    0.329356   -0.095913
siesta:     52   -0.209429   -0.019432   -0.086975
siesta:     53   -0.415479   -0.160738   -1.477258
siesta:     54    0.249246    0.642732   -1.496358
siesta:     55   -0.178855    0.003517   -0.088318
siesta:     56   -0.188960   -0.095622   -0.097848
siesta:     57   -0.373268   -0.335241   -1.473496
siesta:     58    0.005444    0.731609   -1.495184
siesta:     59   -0.179056   -0.075978   -0.101021
siesta:     60   -0.146813   -0.151991   -0.098261
siesta:     61   -0.207560   -0.334161   -1.472487
siesta:     62   -0.192419    0.622764   -1.496318
siesta:     63   -0.137619    0.008832   -0.087182
siesta:     64   -0.019976   -0.290673   -0.098024
siesta:     65   -0.053133   -0.253126   -1.473547
siesta:     66   -0.076890   -0.051070   -1.446524
siesta:     67   -0.696719    1.114266   -0.097034
siesta:     68    0.749755   -1.084647   -0.191671
siesta:     69    0.234475   -0.180258   -1.424591
siesta:     70    0.921900   -1.429920   -0.006654
siesta:     71   -0.380009   -0.154257   -0.003967
siesta:     72   -0.094234    1.482625    0.198875
siesta:     73   -0.211530    0.245819    1.522684
siesta:     74   -0.428382   -0.142712    1.549867
siesta:     75   -0.378920    0.142585    0.127722
siesta:     76   -0.128345   -0.462560    0.118233
siesta:     77   -0.167977   -0.307386    1.551482
siesta:     78   -0.258803   -0.139429    1.530673
siesta:     79   -0.038441   -0.228124    0.127450
siesta:     80   -0.444147    0.027709    0.119590
siesta:     81    0.503871   -0.536758    1.576953
siesta:     82   -0.314173   -0.172634    1.551567
siesta:     83   -0.282548   -0.134992    0.119987
siesta:     84    0.268460   -0.185434    0.108615
siesta:     85    0.346916   -0.213570    1.555698
siesta:     86   -0.310477   -0.296151    1.551709
siesta:     87   -0.228598   -0.270628    0.121595
siesta:     88    0.320977   -0.099995    0.115992
siesta:     89    0.309850   -0.095171    1.546885
siesta:     90   -0.094013   -0.375843    1.542653
siesta:     91    0.139235   -0.084803    0.120333
siesta:     92    0.060858   -0.188572    0.122781
siesta:     93    0.530797    0.306122    1.544400
siesta:     94   -0.107543   -0.667043    1.553509
siesta:     95    0.110642   -0.226075    0.112539
siesta:     96    0.345271    0.423127    0.133776
siesta:     97    0.315207    0.346419    1.514462
siesta:     98    0.135045   -0.955578    1.561288
siesta:     99    0.163981    0.026610    0.135420
siesta:    100    0.166838    0.319985    0.138708
siesta:    101    0.075007    0.646159    1.535788
siesta:    102    0.443653   -0.640902    1.529283
siesta:    103    0.240178   -0.100369    0.114508
siesta:    104   -0.080976    0.488187    0.119450
siesta:    105    0.019598    0.378428    1.518925
siesta:    106    0.786154   -0.539992    1.581313
siesta:    107   -0.167110    0.417750    0.115374
siesta:    108    0.205323    0.033068    0.123360
siesta:    109   -0.274995    0.408798    1.541517
siesta:    110    0.174822    0.126023    1.509947
siesta:    111    0.365297    0.037965    0.117291
siesta:    112    0.281091    0.084853    0.115983
siesta:    113   -0.940464    0.358206    1.576757
siesta:    114    0.670124    0.160873    1.531846
siesta:    115   -0.194822    0.133573    0.128400
siesta:    116    0.331088    0.190646    0.130837
siesta:    117   -1.141070   -0.028204    1.569765
siesta:    118    0.737577    0.443306    1.525786
siesta:    119    0.159092    0.246603    0.120898
siesta:    120   -0.452181   -0.114194    0.117881
siesta:    121   -0.312926    0.016693    1.524437
siesta:    122    0.231260    0.418658    1.532021
siesta:    123    0.035805    0.239436    0.122774
siesta:    124   -0.104768    0.138971    0.113779
siesta:    125   -0.567768   -0.482933    1.554443
siesta:    126    0.054407    0.447282    1.546166
siesta:    127   -0.077326    0.225544    0.118763
siesta:    128   -0.153324    0.118585    0.125324
siesta:    129   -0.357067   -0.636400    1.548480
siesta:    130   -0.109943    0.464046    1.539825
siesta:    131   -0.130349    0.257862    0.107431
siesta:    132   -0.119940   -0.008688    0.132481
siesta:    133   -0.096541   -0.609040    1.569172
siesta:    134   -0.187065    0.283221    1.537574
siesta:    135   -0.201815    0.358143    0.108689
siesta:    136    0.203802   -0.608189    0.136630
siesta:    137   -0.427324    0.505140    1.509436
siesta:    138    0.360721   -0.554898    1.517850
siesta:    139   -0.239325    0.494346    0.206784
siesta:    140    0.944893   -1.451323   -0.002910
siesta: ----------------------------------------
siesta:    Tot    0.065394   -0.149944    3.183356

siesta: Stress tensor (static) (eV/Ang**3):
siesta:    -0.020853    0.001643    0.000020
siesta:     0.001643   -0.025001    0.000109
siesta:     0.000020    0.000109   -0.054224

siesta: Cell volume =       5969.670000 Ang**3

siesta: Pressure (static):
siesta:                Solid            Molecule  Units
siesta:           0.00036333          0.00031725  Ry/Bohr**3
siesta:           0.03335952          0.02912860  eV/Ang**3
siesta:          53.44841499         46.66966900  kBar
(Free)E+ p_basis*V_orbitals  =      -20960.189480
(Free)Eharris+ p_basis*V_orbitals  =      -20960.189480

siesta: Electric dipole (a.u.)  =   -0.125544   -0.395580   -0.000000
siesta: Electric dipole (Debye) =   -0.319101   -1.005466   -0.000000

cite: Please see "carbon_nanoscroll.bib" for an exhaustive BiBTeX file.
cite: Please clearly indicate Siesta version in published work: v4.1-b4-351
cite: This calculation has made use of the following articles
cite: which are encouraged to be cited in a published work.
        Primary SIESTA paper
          DOI: www.doi.org/10.1088/0953-8984/14/11/302

>> End of run:  22-JAN-2021  21:48:12
Job completed
