Siesta Version: siesta-3.2
Architecture  : SIESTA_ARCH
Compiler flags: FFLAGS
PARALLEL version
NetCDF support

* Running on    4 nodes in parallel
>> Start of run:  24-MAR-2013  18:21:49

                           ***********************       
                           *  WELCOME TO SIESTA  *       
                           ***********************       

reinit: Reading from standard input
************************** Dump of input data file ****************************
#
# MgCO3 in primitive cell. SZ. Variable cell -- constant volume
#
SystemName	MgCo3 R-3c test -- SZ, 100 R
SystemLabel	constant_volume
NumberOfSpecies		3
NumberOfAtoms	       10
%block ChemicalSpeciesLabel
      1      12     Mg
      2       6     C
      3       8     O
%endblock ChemicalSpeciesLabel
PAO.BasisSize  SZ
# Rhombohedral primitive cell
# (HEX 3-fold cell had A=4.635 and C=15.023, so alpha=48.179 degrees
#  and a=5.67783 Ang)
LatticeConstant     5.67783 Ang
%block LatticeParameters
1.0 1.0 1.0 48.179 50.179 48.179
%endblock LatticeParameters
AtomicCoordinatesFormat    Fractional
%block AtomicCoordinatesAndAtomicSpecies
  0.0         0.0         0.0      1
  0.5         0.5         0.5      1
  0.25        0.25        0.25     2
 -0.25       -0.25       -0.25     2
  0.5274     -0.0274      0.25     3
  0.25        0.5274     -0.0274   3
 -0.0274      0.25        0.5274   3
 -0.5274      0.0274     -0.25     3
 -0.25       -0.5274      0.0274   3
  0.0274     -0.25       -0.5274   3
%endblock AtomicCoordinatesAndAtomicSpecies
kgrid_cutoff 10.0 Ang
Solution.Method       diagon
MeshCutoff             100 Ry
DM.NumberBroyden       4
DM.UseSaveDM           T
DM.MixingWeight        0.1         # New DM amount for next SCF cycle
DM.Tolerance           1.d-3       # Tolerance in maximum difference
                                   # between input and output DM
MaxSCFIterations       20
WriteCoorStep      .true.
WriteForces        .true.
#
#  Note "variable cell with constant volume" keywords
#
MD.TypeOfRun         CG
MD.Variable-Cell      T
MD.constant-volume   T
MD.Target-pressure   0.0 GPa
MD.Num-CG-steps	     10
************************** End of input data file *****************************

reinit: -----------------------------------------------------------------------
reinit: System Name: MgCo3 R-3c test -- SZ, 100 R
reinit: -----------------------------------------------------------------------
reinit: System Label: constant_volume                                             
reinit: -----------------------------------------------------------------------

initatom: Reading input for the pseudopotentials and atomic orbitals ----------
 Species number:            1  Label: Mg Atomic number:          12
 Species number:            2  Label: C Atomic number:           6
 Species number:            3  Label: O Atomic number:           8
Ground state valence configuration:   3s02
Reading pseudopotential information in formatted form from Mg.psf

Valence configuration for pseudopotential generation:
3s( 2.00) rc: 2.59
3p( 0.00) rc: 2.59
3d( 0.00) rc: 2.59
4f( 0.00) rc: 2.59
Ground state valence configuration:   2s02  2p02
Reading pseudopotential information in formatted form from C.psf

Valence configuration for pseudopotential generation:
2s( 2.00) rc: 1.49
2p( 2.00) rc: 1.52
3d( 0.00) rc: 1.58
Ground state valence configuration:   2s02  2p04
Reading pseudopotential information in formatted form from O.psf

Valence configuration for pseudopotential generation:
2s( 2.00) rc: 1.14
2p( 4.00) rc: 1.14
3d( 0.00) rc: 1.14
4f( 0.00) rc: 1.14
For Mg, standard SIESTA heuristics set lmxkb to 1
 (one more than the basis l, including polarization orbitals).
Use PS.lmax or PS.KBprojectors blocks to override.
For C, standard SIESTA heuristics set lmxkb to 2
 (one more than the basis l, including polarization orbitals).
Use PS.lmax or PS.KBprojectors blocks to override.
For O, standard SIESTA heuristics set lmxkb to 2
 (one more than the basis l, including polarization orbitals).
Use PS.lmax or PS.KBprojectors blocks to override.

<basis_specs>
===============================================================================
Mg                   Z=  12    Mass=  24.310        Charge= 0.17977+309
Lmxo=0 Lmxkb= 1    BasisType=split      Semic=F
L=0  Nsemic=0  Cnfigmx=3
          n=1  nzeta=1  polorb=0
            splnorm:   0.15000    
               vcte:    0.0000    
               rinn:    0.0000    
                rcs:    0.0000    
            lambdas:    1.0000    
-------------------------------------------------------------------------------
L=0  Nkbl=1  erefs: 0.17977+309
L=1  Nkbl=1  erefs: 0.17977+309
===============================================================================
</basis_specs>

atom: Called for Mg                    (Z =  12)

read_vps: Pseudopotential generation method:
read_vps: ATM3      Troullier-Martins                       
Total valence charge:    2.00000

xc_check: Exchange-correlation functional:
xc_check: Ceperley-Alder
V l=0 = -2*Zval/r beyond r=  3.5878
V l=1 = -2*Zval/r beyond r=  3.5878
All V_l potentials equal beyond r=  2.5600
This should be close to max(r_c) in ps generation
All pots = -2*Zval/r beyond r=  3.5878
Using large-core scheme for Vlocal

atom: Estimated core radius    3.58779

atom: Including non-local core corrections could be a good idea
atom: Maximum radius for 4*pi*r*r*local-pseudopot. charge    3.91588
atom: Maximum radius for r*vlocal+2*Zval:    3.63292
GHOST: No ghost state for L =  0
GHOST: No ghost state for L =  1

KBgen: Kleinman-Bylander projectors: 
   l= 0   rc=  2.657845   el= -0.351328   Ekb=  2.184400   kbcos=  0.257081
   l= 1   rc=  2.657845   el= -0.101748   Ekb=  0.525536   kbcos=  0.270508

KBgen: Total number of  Kleinman-Bylander projectors:    4
atom: -------------------------------------------------------------------------

atom: SANKEY-TYPE ORBITALS:

SPLIT: Orbitals with angular momentum L= 0

SPLIT: Basis orbitals for state 3s

SPLIT: PAO cut-off radius determined from an
SPLIT: energy shift=  0.020000 Ry

   izeta = 1
                 lambda =    1.000000
                     rc =    6.619780
                 energy =   -0.332103
                kinetic =    0.289627
    potential(screened) =   -0.621729
       potential(ionic) =   -1.387191
atom: Total number of Sankey-type orbitals:  1

atm_pop: Valence configuration (for local Pseudopot. screening):
 3s( 2.00)                                                            
Vna: chval, zval:    2.00000   2.00000

Vna:  Cut-off radius for the neutral-atom potential:   6.619780

atom: _________________________________________________________________________

<basis_specs>
===============================================================================
C                    Z=   6    Mass=  12.010        Charge= 0.17977+309
Lmxo=1 Lmxkb= 2    BasisType=split      Semic=F
L=0  Nsemic=0  Cnfigmx=2
          n=1  nzeta=1  polorb=0
            splnorm:   0.15000    
               vcte:    0.0000    
               rinn:    0.0000    
                rcs:    0.0000    
            lambdas:    1.0000    
L=1  Nsemic=0  Cnfigmx=2
          n=1  nzeta=1  polorb=0
            splnorm:   0.15000    
               vcte:    0.0000    
               rinn:    0.0000    
                rcs:    0.0000    
            lambdas:    1.0000    
-------------------------------------------------------------------------------
L=0  Nkbl=1  erefs: 0.17977+309
L=1  Nkbl=1  erefs: 0.17977+309
L=2  Nkbl=1  erefs: 0.17977+309
===============================================================================
</basis_specs>

atom: Called for C                     (Z =   6)

read_vps: Pseudopotential generation method:
read_vps: ATM3      Troullier-Martins                       
Total valence charge:    4.00000

xc_check: Exchange-correlation functional:
xc_check: Ceperley-Alder
V l=0 = -2*Zval/r beyond r=  1.4666
V l=1 = -2*Zval/r beyond r=  1.5038
V l=2 = -2*Zval/r beyond r=  1.5612
All V_l potentials equal beyond r=  1.5612
This should be close to max(r_c) in ps generation
All pots = -2*Zval/r beyond r=  1.5612

VLOCAL1: 99.0% of the norm of Vloc inside     17.809 Ry
VLOCAL1: 99.9% of the norm of Vloc inside     40.586 Ry
atom: Maximum radius for 4*pi*r*r*local-pseudopot. charge    1.88329
atom: Maximum radius for r*vlocal+2*Zval:    1.62091
GHOST: No ghost state for L =  0
GHOST: No ghost state for L =  1
GHOST: No ghost state for L =  2

KBgen: Kleinman-Bylander projectors: 
   l= 0   rc=  1.747182   el= -1.001947   Ekb=  5.181700   kbcos=  0.300603
   l= 1   rc=  1.747182   el= -0.398598   Ekb= -4.328763   kbcos= -0.367074
   l= 2   rc=  1.955272   el=  0.002326   Ekb= -1.016175   kbcos= -0.009979

KBgen: Total number of  Kleinman-Bylander projectors:    9
atom: -------------------------------------------------------------------------

atom: SANKEY-TYPE ORBITALS:

SPLIT: Orbitals with angular momentum L= 0

SPLIT: Basis orbitals for state 2s

SPLIT: PAO cut-off radius determined from an
SPLIT: energy shift=  0.020000 Ry

   izeta = 1
                 lambda =    1.000000
                     rc =    4.191849
                 energy =   -0.983897
                kinetic =    0.886956
    potential(screened) =   -1.870853
       potential(ionic) =   -5.479661

SPLIT: Orbitals with angular momentum L= 1

SPLIT: Basis orbitals for state 2p

SPLIT: PAO cut-off radius determined from an
SPLIT: energy shift=  0.020000 Ry

   izeta = 1
                 lambda =    1.000000
                     rc =    4.870301
                 energy =   -0.379093
                kinetic =    2.545357
    potential(screened) =   -2.924450
       potential(ionic) =   -6.433151
atom: Total number of Sankey-type orbitals:  4

atm_pop: Valence configuration (for local Pseudopot. screening):
 2s( 2.00)                                                            
 2p( 2.00)                                                            
Vna: chval, zval:    4.00000   4.00000

Vna:  Cut-off radius for the neutral-atom potential:   4.870301

atom: _________________________________________________________________________

<basis_specs>
===============================================================================
O                    Z=   8    Mass=  16.000        Charge= 0.17977+309
Lmxo=1 Lmxkb= 2    BasisType=split      Semic=F
L=0  Nsemic=0  Cnfigmx=2
          n=1  nzeta=1  polorb=0
            splnorm:   0.15000    
               vcte:    0.0000    
               rinn:    0.0000    
                rcs:    0.0000    
            lambdas:    1.0000    
L=1  Nsemic=0  Cnfigmx=2
          n=1  nzeta=1  polorb=0
            splnorm:   0.15000    
               vcte:    0.0000    
               rinn:    0.0000    
                rcs:    0.0000    
            lambdas:    1.0000    
-------------------------------------------------------------------------------
L=0  Nkbl=1  erefs: 0.17977+309
L=1  Nkbl=1  erefs: 0.17977+309
L=2  Nkbl=1  erefs: 0.17977+309
===============================================================================
</basis_specs>

atom: Called for O                     (Z =   8)

read_vps: Pseudopotential generation method:
read_vps: ATM3      Troullier-Martins                       
Total valence charge:    6.00000

xc_check: Exchange-correlation functional:
xc_check: Ceperley-Alder
V l=0 = -2*Zval/r beyond r=  1.1278
V l=1 = -2*Zval/r beyond r=  1.1278
V l=2 = -2*Zval/r beyond r=  1.1278
All V_l potentials equal beyond r=  1.1278
This should be close to max(r_c) in ps generation
All pots = -2*Zval/r beyond r=  1.1278

VLOCAL1: 99.0% of the norm of Vloc inside     34.126 Ry
VLOCAL1: 99.9% of the norm of Vloc inside     77.774 Ry
atom: Maximum radius for 4*pi*r*r*local-pseudopot. charge    1.37759
atom: Maximum radius for r*vlocal+2*Zval:    1.18566
GHOST: No ghost state for L =  0
GHOST: No ghost state for L =  1
GHOST: No ghost state for L =  2

KBgen: Kleinman-Bylander projectors: 
   l= 0   rc=  1.294105   el= -1.742414   Ekb=  9.135903   kbcos=  0.326910
   l= 1   rc=  1.294105   el= -0.676589   Ekb= -8.124878   kbcos= -0.395047
   l= 2   rc=  1.448233   el=  0.002386   Ekb= -2.039267   kbcos= -0.003484

KBgen: Total number of  Kleinman-Bylander projectors:    9
atom: -------------------------------------------------------------------------

atom: SANKEY-TYPE ORBITALS:

SPLIT: Orbitals with angular momentum L= 0

SPLIT: Basis orbitals for state 2s

SPLIT: PAO cut-off radius determined from an
SPLIT: energy shift=  0.020000 Ry

   izeta = 1
                 lambda =    1.000000
                     rc =    3.305093
                 energy =   -1.723766
                kinetic =    1.614911
    potential(screened) =   -3.338677
       potential(ionic) =  -11.304675

SPLIT: Orbitals with angular momentum L= 1

SPLIT: Basis orbitals for state 2p

SPLIT: PAO cut-off radius determined from an
SPLIT: energy shift=  0.020000 Ry

   izeta = 1
                 lambda =    1.000000
                     rc =    3.937239
                 energy =   -0.658841
                kinetic =    5.005986
    potential(screened) =   -5.664827
       potential(ionic) =  -13.452360
atom: Total number of Sankey-type orbitals:  4

atm_pop: Valence configuration (for local Pseudopot. screening):
 2s( 2.00)                                                            
 2p( 4.00)                                                            
Vna: chval, zval:    6.00000   6.00000

Vna:  Cut-off radius for the neutral-atom potential:   3.937239

atom: _________________________________________________________________________

prinput: Basis input ----------------------------------------------------------

PAO.BasisType split     

%block ChemicalSpeciesLabel
    1   12 Mg                      # Species index, atomic number, species label
    2    6 C                       # Species index, atomic number, species label
    3    8 O                       # Species index, atomic number, species label
%endblock ChemicalSpeciesLabel

%block PAO.Basis                 # Define Basis set
Mg                    1                    # Species label, number of l-shells
 n=3   0   1                         # n, l, Nzeta 
   6.620   
   1.000   
C                     2                    # Species label, number of l-shells
 n=2   0   1                         # n, l, Nzeta 
   4.192   
   1.000   
 n=2   1   1                         # n, l, Nzeta 
   4.870   
   1.000   
O                     2                    # Species label, number of l-shells
 n=2   0   1                         # n, l, Nzeta 
   3.305   
   1.000   
 n=2   1   1                         # n, l, Nzeta 
   3.937   
   1.000   
%endblock PAO.Basis

prinput: ----------------------------------------------------------------------

Dumping basis to NetCDF file Mg.ion.nc
Dumping basis to NetCDF file C.ion.nc
Dumping basis to NetCDF file O.ion.nc
coor:   Atomic-coordinates input format  =     Fractional

siesta: Atomic coordinates (Bohr) and species
siesta:      0.00000   0.00000   0.00000  1        1
siesta:     12.37759   5.72419   3.74139  1        2
siesta:      6.18879   2.86210   1.87070  2        3
siesta:     -6.18879  -2.86210  -1.87070  2        4
siesta:      7.18051   0.64401   1.87070  3        5
siesta:      6.26741   4.12249  -0.20503  3        6
siesta:      5.11846   3.81979   3.94642  3        7
siesta:     -7.18051  -0.64401  -1.87070  3        8
siesta:     -6.26741  -4.12249   0.20503  3        9
siesta:     -5.11846  -3.81979  -3.94642  3       10

siesta: System type = bulk      

initatomlists: Number of atoms, orbitals, and projectors:     10    34    80

siesta: ******************** Simulation parameters ****************************
siesta:
siesta: The following are some of the parameters of the simulation.
siesta: A complete list of the parameters used, including default values,
siesta: can be found in file out.fdf
siesta:
redata: Non-Collinear-spin run           =     F
redata: SpinPolarized (Up/Down) run      =     F
redata: Number of spin components        =     1
redata: Long output                      =     F
redata: Number of Atomic Species         =        3
redata: Charge density info will appear in .RHO file
redata: Write Mulliken Pop.              =     NO
redata: Mesh Cutoff                      =   100.0000  Ry
redata: Net charge of the system         =     0.0000 |e|
redata: Max. number of SCF Iter          =       20
redata: Broyden mixing with     4 saved histories.
redata: Mix DM in first SCF step ?       =     F
redata: Write Pulay info on disk?        =     F
redata: Discard 1st Pulay DM after  kick =     F
redata: New DM Mixing Weight             =     0.1000
redata: New DM Occupancy tolerance       = 0.000000000001
redata: No kicks to SCF
redata: DM Mixing Weight for Kicks       =     0.5000
redata: DM Tolerance for SCF             =     0.001000
redata: Require Energy convergence for SCF =     F
redata: DM Energy tolerance for SCF      =     0.000100 eV
redata: Require Harris convergence for SCF =     F
redata: DM Harris energy tolerance for SCF =     0.000100 eV
redata: Using Saved Data (generic)   =     F
redata: Use continuation files for DM    =     T
redata: Neglect nonoverlap interactions  =     F
redata: Method of Calculation            =     Diagonalization
redata: Divide and Conquer               =     T
redata: Electronic Temperature           =     0.0019  Ry
redata: Fix the spin of the system       =     F
redata: Dynamics option                  =     CG coord. optimization
redata: Variable cell                    =     T
redata: Use continuation files for CG    =     F
redata: Max atomic displ per move        =     0.2000  Bohr
redata: Maximum number of CG moves       =       10
redata: Force tolerance                  =     0.0016  Ry/Bohr
redata: Stress tolerance                 =     1.0000  GPa
redata: ***********************************************************************
Total number of electrons:    48.000000
Total ionic charge:    48.000000

* ProcessorY, Blocksize:    2   9

 Kpoints in:          100 . Kpoints trimmed:           62

siesta: k-grid: Number of k-points =    62
siesta: k-grid: Cutoff (effective) =    11.356 Ang
siesta: k-grid: Supercell and displacements
siesta: k-grid:    5  -5   0      0.500
siesta: k-grid:    0  -5   5      0.000
siesta: k-grid:    0   0   4      0.000
Naive supercell factors:     4    4    4
Auxiliary supercell needs to be larger than naive one...
Auxiliary supercell needs to be larger than naive one...
Auxiliary supercell needs to be larger than naive one...
Auxiliary supercell needs to be larger than naive one...

superc: Internal auxiliary supercell:     5 x     5 x     4  =     100
superc: Number of atoms, orbitals, and projectors:   1000   3400   8000

* Maximum dynamic memory allocated =     3 MB

siesta:                 ==============================
                            Begin CG move =      0
                        ==============================

outcoor: Atomic coordinates (fractional):                   
    0.00000000    0.00000000    0.00000000   1       1  Mg
    0.50000000    0.50000000    0.50000000   1       2  Mg
    0.25000000    0.25000000    0.25000000   2       3  C
   -0.25000000   -0.25000000   -0.25000000   2       4  C
    0.52740000   -0.02740000    0.25000000   3       5  O
    0.25000000    0.52740000   -0.02740000   3       6  O
   -0.02740000    0.25000000    0.52740000   3       7  O
   -0.52740000    0.02740000   -0.25000000   3       8  O
   -0.25000000   -0.52740000    0.02740000   3       9  O
    0.02740000   -0.25000000   -0.52740000   3      10  O

superc: Internal auxiliary supercell:     5 x     5 x     4  =     100
superc: Number of atoms, orbitals, and projectors:   1000   3400   8000

outcell: Unit cell vectors (Ang):
        5.677830    0.000000    0.000000
        3.786009    4.231299    0.000000
        3.636033    1.826925    3.959718

outcell: Cell vector modules (Ang)   :    5.677830    5.677830    5.677830
outcell: Cell angles (23,13,12) (deg):     48.1790     50.1790     48.1790
outcell: Cell volume (Ang**3)        :     95.1306
New_DM. Step:     1
Initializing Density Matrix...

InitMesh: MESH =    32 x    32 x    32 =       32768
InitMesh: Mesh cutoff (required, used) =   100.000   113.739 Ry

* Maximum dynamic memory allocated =     8 MB

stepf: Fermi-Dirac step function
 Broyden: No of relevant DM elements:         9718
 maxit for broyden:            4
 cycle on maxit:  T
 variable weight:  T
 initial alpha:   0.10000000000000001     

siesta: Program's energy decomposition (eV):
siesta: Ebs     =      -692.855395
siesta: Eions   =      5228.674091
siesta: Ena     =      1094.137208
siesta: Ekin    =      2100.835149
siesta: Enl     =      -258.862835
siesta: DEna    =        -0.000019
siesta: DUscf   =         0.000000
siesta: DUext   =         0.000000
siesta: Exc     =      -682.142452
siesta: eta*DQ  =         0.000000
siesta: Emadel  =         0.000000
siesta: Emeta   =         0.000000
siesta: Emolmec =         0.000000
siesta: Ekinion =         0.000000
siesta: Eharris =     -2966.454854
siesta: Etot    =     -2974.707041
siesta: FreeEng =     -2974.707041

siesta: iscf   Eharris(eV)      E_KS(eV)   FreeEng(eV)   dDmax  Ef(eV)
siesta:    1    -2966.4549    -2974.7070    -2974.7070  1.7486 -2.8753
timer: Routine,Calls,Time,% = IterSCF        1       4.501  63.14
elaps: Routine,Calls,Wall,% = IterSCF        1       1.130  58.52
siesta:    2    -2967.9627    -2949.8931    -2949.8931  0.8244 -2.0897
siesta:    3    -2963.9013    -2951.4716    -2951.4716  0.6368 -1.9635
siesta:    4    -2957.8626    -2954.2194    -2954.2194  0.0536 -2.7334
siesta:    5    -2957.8282    -2954.7986    -2954.7986  0.0397 -2.7470
siesta:    6    -2957.8194    -2956.0871    -2956.0871  0.0238 -2.8238
Cycling the Broyden process...
siesta:    7    -2957.8155    -2957.7334    -2957.7334  0.0054 -2.8862
Cycling the Broyden process...
siesta:    8    -2957.8151    -2957.5811    -2957.5811  0.0035 -2.8781
Cycling the Broyden process...
siesta:    9    -2957.8151    -2957.8029    -2957.8029  0.0002 -2.8743

siesta: E_KS(eV) =            -2957.8118

siesta: E_KS - E_eggbox =     -2957.8118

siesta: Atomic forces (eV/Ang):
     1    0.000000    0.000000    0.000000
     2   -0.000000    0.000000    0.000000
     3   -1.138380    1.018593    2.207664
     4    1.138383   -1.018600   -2.207666
     5    2.893455   -7.217896    0.547145
     6    0.087950    4.550213   -6.329023
     7   -1.878583    1.680910    3.643190
     8   -2.893457    7.217897   -0.547139
     9   -0.087951   -4.550209    6.329018
    10    1.878583   -1.680900   -3.643206
----------------------------------------
   Tot   -0.000001    0.000008   -0.000017
----------------------------------------
   Max    7.217897
   Res    3.145079    sqrt( Sum f_i^2 / 3N )
----------------------------------------
   Max    7.217897    constrained

Stress-tensor-Voigt (kbar):      118.98     -203.32     -122.75      139.76      126.40       40.99
(Free)E + p*V (eV/cell)    -2953.7130
Target enthalpy (eV/cell)    -2957.8118

siesta: Stress tensor (static) (eV/Ang**3):
         0.074259    0.087232    0.025583
         0.087231   -0.126903    0.078890
         0.025583    0.078890   -0.076615

siesta: Pressure (static):         69.03236291  kBar

siesta: Stress tensor (total) (eV/Ang**3):
         0.074259    0.087232    0.025583
         0.087231   -0.126903    0.078890
         0.025583    0.078890   -0.076615

siesta: Pressure (total):         69.03236291  kBar

cgvc: No target stress found, assuming hydrostatic MD.TargetPressure.
***Target stress set to zero for constant-volume calculation

cgvc: Target stress (kBar)
cgvc:         0.000       0.000       0.000
cgvc:         0.000       0.000       0.000
cgvc:         0.000       0.000       0.000
Volume before coercion:      95.1272

* Maximum dynamic memory allocated =     9 MB

siesta:                 ==============================
                            Begin CG move =      1
                        ==============================

outcoor: Atomic coordinates (fractional):                   
    0.00000000    0.00000000    0.00000000   1       1  Mg
    0.50000000    0.50000000    0.50000000   1       2  Mg
    0.24800909    0.25000002    0.25199088   2       3  C
   -0.24800909   -0.25000002   -0.25199088   2       4  C
    0.53246035   -0.03343305    0.24984620   3       5  O
    0.25015382    0.53343301   -0.03246033   3       6  O
   -0.03068545    0.25000003    0.53068546   3       7  O
   -0.53246036    0.03343305   -0.24984619   3       8  O
   -0.25015382   -0.53343300    0.03246032   3       9  O
    0.03068545   -0.25000002   -0.53068547   3      10  O
 Kpoints in:           60 . Kpoints trimmed:           60
Auxiliary supercell needs to be larger than naive one...
Auxiliary supercell needs to be larger than naive one...
Auxiliary supercell needs to be larger than naive one...

siesta: k-grid: Number of k-points =    60
siesta: k-grid: Cutoff (effective) =    11.306 Ang
siesta: k-grid: Supercell and displacements
siesta: k-grid:    5  -5   0      0.500
siesta: k-grid:    0  -5   5      0.000
siesta: k-grid:    4   0   0      0.000
Naive supercell factors:     4    4    4
Auxiliary supercell needs to be larger than naive one...

superc: Internal auxiliary supercell:     5 x     5 x     4  =     100
superc: Number of atoms, orbitals, and projectors:   1000   3400   8000

outcell: Unit cell vectors (Ang):
        5.652723   -0.018715   -0.005489
        3.755321    4.232272   -0.016273
        3.610105    1.808944    3.955822

outcell: Cell vector modules (Ang)   :    5.652757    5.658164    5.652757
outcell: Cell angles (23,13,12) (deg):     48.6069     50.4388     48.6069
outcell: Cell volume (Ang**3)        :     95.1306
New_DM. Step:     2
Re-using DM from previous geometry...
Re-using DM without extrapolation (not allowed)
Density Matrix sparsity pattern changed.

InitMesh: MESH =    30 x    30 x    30 =       27000
InitMesh: Mesh cutoff (required, used) =   100.000   101.217 Ry

siesta: iscf   Eharris(eV)      E_KS(eV)   FreeEng(eV)   dDmax  Ef(eV)
siesta:    1    -2958.6905    -2956.6875    -2956.6875  0.0653 -3.4373
siesta:    2    -2958.7420    -2958.5809    -2958.5809  0.0682 -3.2182
siesta:    3    -2958.6942    -2958.5943    -2958.5943  0.0519 -3.2439
siesta:    4    -2958.6434    -2958.6117    -2958.6117  0.0081 -3.3021
siesta:    5    -2958.6420    -2958.6234    -2958.6234  0.0043 -3.3163
siesta:    6    -2958.6418    -2958.6248    -2958.6248  0.0019 -3.3190
Cycling the Broyden process...
siesta:    7    -2958.6418    -2958.6383    -2958.6383  0.0001 -3.3230

siesta: E_KS(eV) =            -2958.6388

siesta: Atomic forces (eV/Ang):
     1   -0.000000   -0.000001   -0.000000
     2    0.000000    0.000000    0.000000
     3   -0.310434    0.277778    0.602009
     4    0.310432   -0.277773   -0.602006
     5    1.677536   -4.591940    0.376718
     6    0.140510    2.965180   -3.902478
     7   -1.597453    1.429361    3.097983
     8   -1.677529    4.591935   -0.376712
     9   -0.140516   -2.965175    3.902471
    10    1.597440   -1.429353   -3.097985
----------------------------------------
   Tot   -0.000014    0.000012   -0.000001
----------------------------------------
   Max    4.591940
   Res    2.046323    sqrt( Sum f_i^2 / 3N )
----------------------------------------
   Max    4.591940    constrained

Stress-tensor-Voigt (kbar):      144.59      -75.25      -34.72      100.34       78.14       37.56
(Free)E + p*V (eV/cell)    -2959.3240
Target enthalpy (eV/cell)    -2958.6388

siesta: Stress tensor (static) (eV/Ang**3):
         0.090245    0.062628    0.023441
         0.062629   -0.046965    0.048771
         0.023441    0.048770   -0.021670

siesta: Pressure (static):        -11.54048604  kBar

siesta: Stress tensor (total) (eV/Ang**3):
         0.090245    0.062628    0.023441
         0.062629   -0.046965    0.048771
         0.023441    0.048770   -0.021670

siesta: Pressure (total):        -11.54048604  kBar
Volume before coercion:      95.1072

* Maximum dynamic memory allocated =     9 MB

siesta:                 ==============================
                            Begin CG move =      2
                        ==============================

outcoor: Atomic coordinates (fractional):                   
    0.00000000    0.00000000    0.00000000   1       1  Mg
    0.50000000    0.50000000    0.50000000   1       2  Mg
    0.24482364    0.25000004    0.25517628   2       3  C
   -0.24482363   -0.25000006   -0.25517629   2       4  C
    0.54055692   -0.04308593    0.24960012   3       5  O
    0.25039992    0.54308582   -0.04055685   3       6  O
   -0.03594216    0.25000008    0.53594219   3       7  O
   -0.54055693    0.04308592   -0.24960011   3       8  O
   -0.25039993   -0.54308581    0.04055683   3       9  O
    0.03594216   -0.25000005   -0.53594223   3      10  O
 Kpoints in:           60 . Kpoints trimmed:           60
Auxiliary supercell needs to be larger than naive one...
Auxiliary supercell needs to be larger than naive one...
Auxiliary supercell needs to be larger than naive one...

siesta: k-grid: Number of k-points =    60
siesta: k-grid: Cutoff (effective) =    11.226 Ang
siesta: k-grid: Supercell and displacements
siesta: k-grid:    5  -5   0      0.500
siesta: k-grid:    0  -5   5      0.000
siesta: k-grid:    4   0   0      0.000
Naive supercell factors:     4    4    4
Auxiliary supercell needs to be larger than naive one...

superc: Internal auxiliary supercell:     5 x     5 x     4  =     100
superc: Number of atoms, orbitals, and projectors:   1000   3400   8000

outcell: Unit cell vectors (Ang):
        5.612834   -0.048662   -0.014272
        3.706405    4.234042   -0.042313
        3.568799    1.780265    3.949787

outcell: Cell vector modules (Ang)   :    5.613063    5.627286    5.613064
outcell: Cell angles (23,13,12) (deg):     49.2985     50.8585     49.2985
outcell: Cell volume (Ang**3)        :     95.1306
New_DM. Step:     3
Re-using DM from previous geometry...
Re-using DM without extrapolation (not allowed)

InitMesh: MESH =    30 x    30 x    30 =       27000
InitMesh: Mesh cutoff (required, used) =   100.000   103.259 Ry

siesta: iscf   Eharris(eV)      E_KS(eV)   FreeEng(eV)   dDmax  Ef(eV)
siesta:    1    -2959.5756    -2956.6506    -2956.6506  0.1083 -3.8039
siesta:    2    -2959.7726    -2959.2562    -2959.2562  0.1198 -3.6141
siesta:    3    -2959.6120    -2959.2986    -2959.2986  0.0902 -3.6181
siesta:    4    -2959.4456    -2959.3494    -2959.3494  0.0107 -3.6382
siesta:    5    -2959.4434    -2959.3753    -2959.3753  0.0084 -3.6603
siesta:    6    -2959.4419    -2959.3894    -2959.3894  0.0035 -3.6695
Cycling the Broyden process...
siesta:    7    -2959.4416    -2959.4289    -2959.4289  0.0002 -3.6743

siesta: E_KS(eV) =            -2959.4306

siesta: Atomic forces (eV/Ang):
     1   -0.000000    0.000000   -0.000001
     2    0.000000    0.000000    0.000000
     3    0.628925   -0.562738   -1.219695
     4   -0.628926    0.562743    1.219692
     5    0.314839   -1.564961    0.187881
     6    0.170889    1.130310   -1.129842
     7   -1.026866    0.918830    1.991454
     8   -0.314838    1.564955   -0.187872
     9   -0.170902   -1.130315    1.129835
    10    1.026877   -0.918826   -1.991444
----------------------------------------
   Tot   -0.000003   -0.000000    0.000008
----------------------------------------
   Max    1.991454
   Res    0.939195    sqrt( Sum f_i^2 / 3N )
----------------------------------------
   Max    1.991454    constrained

Stress-tensor-Voigt (kbar):      150.21       75.70       79.05       39.25       22.20       18.12
(Free)E + p*V (eV/cell)    -2965.4664
Target enthalpy (eV/cell)    -2959.4306

siesta: Stress tensor (static) (eV/Ang**3):
         0.093756    0.024489    0.011313
         0.024495    0.047246    0.013857
         0.011310    0.013854    0.049341

siesta: Pressure (static):       -101.65542627  kBar

siesta: Stress tensor (total) (eV/Ang**3):
         0.093756    0.024489    0.011313
         0.024495    0.047246    0.013857
         0.011310    0.013854    0.049341

siesta: Pressure (total):       -101.65542627  kBar
Volume before coercion:      95.0384

* Maximum dynamic memory allocated =     9 MB

siesta:                 ==============================
                            Begin CG move =      3
                        ==============================

outcoor: Atomic coordinates (fractional):                   
    0.00000000    0.00000000    0.00000000   1       1  Mg
    0.50000000    0.50000000    0.50000000   1       2  Mg
    0.23972691    0.25000009    0.26027293   2       3  C
   -0.23972689   -0.25000012   -0.26027295   2       4  C
    0.55351142   -0.05853053    0.24920639   3       5  O
    0.25079369    0.55853031   -0.05351128   3       6  O
   -0.04435290    0.25000016    0.54435296   3       7  O
   -0.55351144    0.05853053   -0.24920636   3       8  O
   -0.25079370   -0.55853029    0.05351126   3       9  O
    0.04435290   -0.25000010   -0.54435304   3      10  O
 Kpoints in:           60 . Kpoints trimmed:           60
Auxiliary supercell needs to be larger than naive one...
Auxiliary supercell needs to be larger than naive one...
Auxiliary supercell needs to be larger than naive one...

siesta: k-grid: Number of k-points =    60
siesta: k-grid: Cutoff (effective) =    11.101 Ang
siesta: k-grid: Supercell and displacements
siesta: k-grid:    5  -5   0      0.500
siesta: k-grid:    0  -5   5      0.000
siesta: k-grid:    4   0   0      0.000
Naive supercell factors:     4    4    4
Auxiliary supercell needs to be larger than naive one...

superc: Internal auxiliary supercell:     5 x     5 x     4  =     100
superc: Number of atoms, orbitals, and projectors:   1000   3400   8000

outcell: Unit cell vectors (Ang):
        5.549719   -0.096599   -0.028330
        3.628595    4.237425   -0.083995
        3.503152    1.734594    3.940640

outcell: Cell vector modules (Ang)   :    5.550632    5.579384    5.550633
outcell: Cell angles (23,13,12) (deg):     50.4233     51.5406     50.4233
outcell: Cell volume (Ang**3)        :     95.1306
New_DM. Step:     4
Re-using DM from previous geometry...
Re-using DM without extrapolation (not allowed)
Density Matrix sparsity pattern changed.

InitMesh: MESH =    30 x    30 x    30 =       27000
InitMesh: Mesh cutoff (required, used) =   100.000   106.629 Ry

siesta: iscf   Eharris(eV)      E_KS(eV)   FreeEng(eV)   dDmax  Ef(eV)
siesta:    1    -2959.6409    -2955.5811    -2955.5811  0.1802 -4.1575
siesta:    2    -2960.5149    -2958.6044    -2958.6044  0.2327 -4.2109
siesta:    3    -2959.8934    -2958.7595    -2958.7595  0.1708 -4.1559
siesta:    4    -2959.2592    -2958.9251    -2958.9251  0.0244 -4.0268
siesta:    5    -2959.2529    -2958.9591    -2958.9591  0.0133 -4.0496
siesta:    6    -2959.2515    -2959.0897    -2959.0897  0.0100 -4.0913
Cycling the Broyden process...
siesta:    7    -2959.2495    -2959.1912    -2959.1912  0.0008 -4.0859

siesta: E_KS(eV) =            -2959.2039

siesta: Atomic forces (eV/Ang):
     1   -0.000001   -0.000001   -0.000001
     2   -0.000000   -0.000000    0.000000
     3    1.526457   -1.365830   -2.960290
     4   -1.526457    1.365835    2.960288
     5   -1.184385    1.948765    0.065131
     6    0.085844   -0.965788    2.065653
     7   -0.286534    0.256401    0.555636
     8    1.184770   -1.949031   -0.065552
     9   -0.085992    0.965983   -2.065079
    10    0.286519   -0.256394   -0.555637
----------------------------------------
   Tot    0.000220   -0.000062    0.000148
----------------------------------------
   Max    2.960290
   Res    1.260349    sqrt( Sum f_i^2 / 3N )
----------------------------------------
   Max    2.960290    constrained

Stress-tensor-Voigt (kbar):      151.43      269.93      231.80      -43.33      -46.47      -14.17
(Free)E + p*V (eV/cell)    -2972.1309
Target enthalpy (eV/cell)    -2959.2039

siesta: Stress tensor (static) (eV/Ang**3):
         0.094511   -0.027067   -0.008833
        -0.027044    0.168473   -0.028992
        -0.008844   -0.029004    0.144678

siesta: Pressure (static):       -217.71762598  kBar

siesta: Stress tensor (total) (eV/Ang**3):
         0.094511   -0.027067   -0.008833
        -0.027044    0.168473   -0.028992
        -0.008844   -0.029004    0.144678

siesta: Pressure (total):       -217.71762598  kBar
Volume before coercion:      95.0829

* Maximum dynamic memory allocated =     9 MB

siesta:                 ==============================
                            Begin CG move =      4
                        ==============================

outcoor: Atomic coordinates (fractional):                   
    0.00000000    0.00000000    0.00000000   1       1  Mg
    0.50000000    0.50000000    0.50000000   1       2  Mg
    0.24261009    0.25000006    0.25738980   2       3  C
   -0.24261007   -0.25000008   -0.25738981   2       4  C
    0.54618315   -0.04979364    0.24942912   3       5  O
    0.25057094    0.54979348   -0.04618306   3       6  O
   -0.03959501    0.25000011    0.53959505   3       7  O
   -0.54618317    0.04979363   -0.24942910   3       8  O
   -0.25057095   -0.54979346    0.04618304   3       9  O
    0.03959501   -0.25000007   -0.53959511   3      10  O
 Kpoints in:           60 . Kpoints trimmed:           60
Auxiliary supercell needs to be larger than naive one...
Auxiliary supercell needs to be larger than naive one...
Auxiliary supercell needs to be larger than naive one...

siesta: k-grid: Number of k-points =    60
siesta: k-grid: Cutoff (effective) =    11.172 Ang
siesta: k-grid: Supercell and displacements
siesta: k-grid:    5  -5   0      0.500
siesta: k-grid:    0  -5   5      0.000
siesta: k-grid:    4   0   0      0.000
Naive supercell factors:     4    4    4
Auxiliary supercell needs to be larger than naive one...

superc: Internal auxiliary supercell:     5 x     5 x     4  =     100
superc: Number of atoms, orbitals, and projectors:   1000   3400   8000

outcell: Unit cell vectors (Ang):
        5.585317   -0.069477   -0.020376
        3.672544    4.235428   -0.060412
        3.540222    1.760398    3.945737

outcell: Cell vector modules (Ang)   :    5.585786    5.606254    5.585787
outcell: Cell angles (23,13,12) (deg):     49.7843     51.1531     49.7843
outcell: Cell volume (Ang**3)        :     95.1306
New_DM. Step:     5
Re-using DM from previous geometry...
Re-using DM without extrapolation (not allowed)
Density Matrix sparsity pattern changed.

InitMesh: MESH =    30 x    30 x    30 =       27000
InitMesh: Mesh cutoff (required, used) =   100.000   104.706 Ry

siesta: iscf   Eharris(eV)      E_KS(eV)   FreeEng(eV)   dDmax  Ef(eV)
siesta:    1    -2959.6687    -2961.5304    -2961.5304  0.0968 -3.7814
siesta:    2    -2959.8714    -2959.3870    -2959.3870  0.1330 -3.8659
siesta:    3    -2959.6940    -2959.4246    -2959.4246  0.0860 -3.8847
siesta:    4    -2959.5567    -2959.4643    -2959.4643  0.0206 -3.9022
siesta:    5    -2959.5503    -2959.4855    -2959.4855  0.0082 -3.8839
siesta:    6    -2959.5494    -2959.4985    -2959.4985  0.0032 -3.8739
Cycling the Broyden process...
siesta:    7    -2959.5493    -2959.5372    -2959.5372  0.0004 -3.8677

siesta: E_KS(eV) =            -2959.5397

siesta: Atomic forces (eV/Ang):
     1   -0.000001   -0.000000   -0.000000
     2   -0.000000    0.000000   -0.000000
     3    1.128470   -1.009717   -2.188480
     4   -1.128470    1.009721    2.188476
     5   -0.501200    0.284704    0.133960
     6    0.135919    0.042095    0.574492
     7   -0.693796    0.620854    1.345574
     8    0.501188   -0.284706   -0.133952
     9   -0.135924   -0.042092   -0.574480
    10    0.693797   -0.620846   -1.345572
----------------------------------------
   Tot   -0.000017    0.000014    0.000018
----------------------------------------
   Max    2.188480
   Res    0.835075    sqrt( Sum f_i^2 / 3N )
----------------------------------------
   Max    2.188480    constrained

Stress-tensor-Voigt (kbar):      153.78      172.83      156.81       -2.71      -12.23        3.53
(Free)E + p*V (eV/cell)    -2969.1074
Target enthalpy (eV/cell)    -2959.5397

siesta: Stress tensor (static) (eV/Ang**3):
         0.095980   -0.001699    0.002208
        -0.001691    0.107870   -0.007632
         0.002204   -0.007636    0.097875

siesta: Pressure (static):       -161.14035738  kBar

siesta: Stress tensor (total) (eV/Ang**3):
         0.095980   -0.001699    0.002208
        -0.001691    0.107870   -0.007632
         0.002204   -0.007636    0.097875

siesta: Pressure (total):       -161.14035738  kBar

cgvc: Finished line minimization    1.  Mean atomic displacement =    0.1853
Volume before coercion:      95.0624

* Maximum dynamic memory allocated =     9 MB

siesta:                 ==============================
                            Begin CG move =      5
                        ==============================

outcoor: Atomic coordinates (fractional):                   
   -0.00000001   -0.00000001   -0.00000001   1       1  Mg
    0.49999999    0.50000000    0.49999999   1       2  Mg
    0.26125007    0.25000003    0.23874968   2       3  C
   -0.26125005   -0.25000000   -0.23874974   2       4  C
    0.54305017   -0.05920143    0.24680090   3       5  O
    0.25319894    0.55920066   -0.04304934   3       6  O
   -0.05651091    0.25000112    0.55651233   3       7  O
   -0.54305040    0.05920126   -0.24680091   3       8  O
   -0.25319904   -0.55920065    0.04304944   3       9  O
    0.05651092   -0.25000094   -0.55651232   3      10  O
 Kpoints in:           60 . Kpoints trimmed:           60
Auxiliary supercell needs to be larger than naive one...
Auxiliary supercell needs to be larger than naive one...
Auxiliary supercell needs to be larger than naive one...

siesta: k-grid: Number of k-points =    60
siesta: k-grid: Cutoff (effective) =    11.133 Ang
siesta: k-grid: Supercell and displacements
siesta: k-grid:    5  -5   0      0.500
siesta: k-grid:    0  -5   5      0.000
siesta: k-grid:    4   0   0      0.000
Naive supercell factors:     4    4    4
Auxiliary supercell needs to be larger than naive one...

superc: Internal auxiliary supercell:     5 x     5 x     4  =     100
superc: Number of atoms, orbitals, and projectors:   1000   3400   8000

outcell: Unit cell vectors (Ang):
        5.565753   -0.088256   -0.032060
        3.645505    4.227010   -0.070471
        3.513503    1.748023    3.947936

outcell: Cell vector modules (Ang)   :    5.566545    5.582319    5.566551
outcell: Cell angles (23,13,12) (deg):     50.1322     51.5356     50.1321
outcell: Cell volume (Ang**3)        :     95.1306
New_DM. Step:     6
Re-using DM from previous geometry...
Re-using DM without extrapolation (not allowed)
Density Matrix sparsity pattern changed.

InitMesh: MESH =    30 x    30 x    30 =       27000
InitMesh: Mesh cutoff (required, used) =   100.000   105.937 Ry

siesta: iscf   Eharris(eV)      E_KS(eV)   FreeEng(eV)   dDmax  Ef(eV)
siesta:    1    -2959.9230    -2957.1340    -2957.1340  0.1252 -4.1664
siesta:    2    -2963.6325    -2957.5589    -2957.5589  0.5663 -1.9352
siesta:    3    -2960.4495    -2957.9416    -2957.9416  0.2162 -2.6788
siesta:    4    -2959.3550    -2958.2161    -2958.2161  0.1216 -3.1059
siesta:    5    -2959.1141    -2958.4212    -2958.4212  0.0489 -3.0575
siesta:    6    -2959.0941    -2958.5754    -2958.5754  0.0186 -3.0872
Cycling the Broyden process...
siesta:    7    -2959.0925    -2958.6680    -2958.6680  0.0127 -3.0962
Cycling the Broyden process...
siesta:    8    -2959.0905    -2959.0076    -2959.0076  0.0039 -3.1072
Cycling the Broyden process...
siesta:    9    -2959.0905    -2959.0246    -2959.0246  0.0031 -3.1078
Cycling the Broyden process...
siesta:   10    -2959.0904    -2959.0923    -2959.0923  0.0002 -3.1089

siesta: E_KS(eV) =            -2959.0910

siesta: Atomic forces (eV/Ang):
     1    0.000001    0.000001    0.000001
     2   -0.000003   -0.000004    0.000002
     3   -1.500967    1.343029    2.911025
     4    1.500960   -1.343033   -2.911004
     5    0.609462    0.861810   -0.289976
     6   -0.465362   -0.990762    0.010502
     7    1.345818   -1.204048   -2.609825
     8   -0.609420   -0.861792    0.289980
     9    0.465354    0.990764   -0.010501
    10   -1.345809    1.204059    2.609839
----------------------------------------
   Tot    0.000034    0.000023    0.000044
----------------------------------------
   Max    2.911025
   Res    1.290976    sqrt( Sum f_i^2 / 3N )
----------------------------------------
   Max    2.911025    constrained

Stress-tensor-Voigt (kbar):      155.94      187.60      281.68      -49.93       43.96      -71.19
(Free)E + p*V (eV/cell)    -2971.4652
Target enthalpy (eV/cell)    -2959.0910

siesta: Stress tensor (static) (eV/Ang**3):
         0.097328   -0.031158   -0.044435
        -0.031162    0.117092    0.027436
        -0.044433    0.027438    0.175808

siesta: Pressure (static):       -208.40701359  kBar

siesta: Stress tensor (total) (eV/Ang**3):
         0.097328   -0.031158   -0.044435
        -0.031162    0.117092    0.027436
        -0.044433    0.027438    0.175808

siesta: Pressure (total):       -208.40701359  kBar
Volume before coercion:      95.0762

* Maximum dynamic memory allocated =     9 MB

siesta:                 ==============================
                            Begin CG move =      6
                        ==============================

outcoor: Atomic coordinates (fractional):                   
   -0.00000000   -0.00000000   -0.00000000   1       1  Mg
    0.50000000    0.50000000    0.50000000   1       2  Mg
    0.24919035    0.25000005    0.25080948   2       3  C
   -0.24919034   -0.25000005   -0.25080951   2       4  C
    0.54507715   -0.05311476    0.24850131   3       5  O
    0.25149867    0.55311439   -0.04507680   3       6  O
   -0.04556664    0.25000047    0.54556717   3       7  O
   -0.54507724    0.05311470   -0.24850130   3       8  O
   -0.25149871   -0.55311438    0.04507682   3       9  O
    0.04556664   -0.25000038   -0.54556720   3      10  O
 Kpoints in:           60 . Kpoints trimmed:           60
Auxiliary supercell needs to be larger than naive one...
Auxiliary supercell needs to be larger than naive one...
Auxiliary supercell needs to be larger than naive one...

siesta: k-grid: Number of k-points =    60
siesta: k-grid: Cutoff (effective) =    11.158 Ang
siesta: k-grid: Supercell and displacements
siesta: k-grid:    5  -5   0      0.500
siesta: k-grid:    0  -5   5      0.000
siesta: k-grid:    4   0   0      0.000
Naive supercell factors:     4    4    4
Auxiliary supercell needs to be larger than naive one...

superc: Internal auxiliary supercell:     5 x     5 x     4  =     100
superc: Number of atoms, orbitals, and projectors:   1000   3400   8000

outcell: Unit cell vectors (Ang):
        5.578400   -0.076106   -0.024501
        3.662992    4.232448   -0.063963
        3.530783    1.756026    3.946506

outcell: Cell vector modules (Ang)   :    5.578973    5.597787    5.578975
outcell: Cell angles (23,13,12) (deg):     49.9068     51.2879     49.9068
outcell: Cell volume (Ang**3)        :     95.1306
New_DM. Step:     7
Re-using DM from previous geometry...
Re-using DM without extrapolation (not allowed)
Density Matrix sparsity pattern changed.

InitMesh: MESH =    30 x    30 x    30 =       27000
InitMesh: Mesh cutoff (required, used) =   100.000   105.138 Ry

siesta: iscf   Eharris(eV)      E_KS(eV)   FreeEng(eV)   dDmax  Ef(eV)
siesta:    1    -2960.0012    -2960.8505    -2960.8505  0.0873 -3.1388
siesta:    2    -2961.3749    -2959.0338    -2959.0338  0.2768 -3.2576
siesta:    3    -2960.3309    -2959.2040    -2959.2040  0.1833 -3.2437
siesta:    4    -2959.6604    -2959.3238    -2959.3238  0.0193 -4.3345
siesta:    5    -2959.6598    -2959.3663    -2959.3663  0.0165 -4.3369
siesta:    6    -2959.6579    -2959.6069    -2959.6069  0.0021 -4.3319
Cycling the Broyden process...
siesta:    7    -2959.6578    -2959.6150    -2959.6150  0.0014 -4.3321
Cycling the Broyden process...
siesta:    8    -2959.6578    -2959.6127    -2959.6127  0.0016 -4.3321
Cycling the Broyden process...
siesta:    9    -2959.6578    -2959.6597    -2959.6597  0.0001 -4.3327

siesta: E_KS(eV) =            -2959.6571

siesta: Atomic forces (eV/Ang):
     1   -0.000001    0.000000    0.000004
     2   -0.000002    0.000002   -0.000001
     3   -0.103581    0.092683    0.200925
     4    0.103570   -0.092675   -0.200919
     5   -0.377508    0.298099   -0.076719
     6    0.199332   -0.138722    0.422281
     7    0.336746   -0.301240   -0.652987
     8    0.377529   -0.298105    0.076721
     9   -0.199335    0.138711   -0.422275
    10   -0.336744    0.301243    0.652985
----------------------------------------
   Tot    0.000005   -0.000003    0.000014
----------------------------------------
   Max    0.652987
   Res    0.278662    sqrt( Sum f_i^2 / 3N )
----------------------------------------
   Max    0.652987    constrained

Stress-tensor-Voigt (kbar):      157.94      177.17      218.50      -23.47       19.13      -33.99
(Free)E + p*V (eV/cell)    -2970.6139
Target enthalpy (eV/cell)    -2959.6571

siesta: Stress tensor (static) (eV/Ang**3):
         0.098576   -0.014648   -0.021214
        -0.014647    0.110580    0.011938
        -0.021214    0.011937    0.136373

siesta: Pressure (static):       -184.53530817  kBar

siesta: Stress tensor (total) (eV/Ang**3):
         0.098576   -0.014648   -0.021214
        -0.014647    0.110580    0.011938
        -0.021214    0.011937    0.136373

siesta: Pressure (total):       -184.53530817  kBar

cgvc: Finished line minimization    2.  Mean atomic displacement =    0.0654
Volume before coercion:      95.0828

* Maximum dynamic memory allocated =     9 MB

siesta:                 ==============================
                            Begin CG move =      7
                        ==============================

outcoor: Atomic coordinates (fractional):                   
   -0.00000001   -0.00000001    0.00000003   1       1  Mg
    0.49999997    0.50000001    0.49999998   1       2  Mg
    0.25195713    0.25000006    0.24804317   2       3  C
   -0.25195728   -0.25000007   -0.24804321   2       4  C
    0.53878033   -0.05559560    0.24497929   3       5  O
    0.25502054    0.55559453   -0.03877972   3       6  O
   -0.04445612    0.25000145    0.54445802   3       7  O
   -0.53878017    0.05559563   -0.24497910   3       8  O
   -0.25502065   -0.55559468    0.03877975   3       9  O
    0.04445614   -0.25000127   -0.54445803   3      10  O
 Kpoints in:           60 . Kpoints trimmed:           60
Auxiliary supercell needs to be larger than naive one...
Auxiliary supercell needs to be larger than naive one...
Auxiliary supercell needs to be larger than naive one...

siesta: k-grid: Number of k-points =    60
siesta: k-grid: Cutoff (effective) =    11.208 Ang
siesta: k-grid: Supercell and displacements
siesta: k-grid:    5  -5   0      0.500
siesta: k-grid:    0  -5   5      0.000
siesta: k-grid:    4   0   0      0.000
Naive supercell factors:     4    4    4
Auxiliary supercell needs to be larger than naive one...

superc: Internal auxiliary supercell:     5 x     5 x     4  =     100
superc: Number of atoms, orbitals, and projectors:   1000   3400   8000

outcell: Unit cell vectors (Ang):
        5.603952   -0.053712    0.011517
        3.696719    4.254412   -0.056705
        3.579471    1.757719    3.937662

outcell: Cell vector modules (Ang)   :    5.604221    5.636397    5.604228
outcell: Cell angles (23,13,12) (deg):     49.5655     50.4229     49.5654
outcell: Cell volume (Ang**3)        :     95.1306
New_DM. Step:     8
Re-using DM from previous geometry...
Re-using DM without extrapolation (not allowed)
Density Matrix sparsity pattern changed.

InitMesh: MESH =    30 x    30 x    30 =       27000
InitMesh: Mesh cutoff (required, used) =   100.000   103.397 Ry

siesta: iscf   Eharris(eV)      E_KS(eV)   FreeEng(eV)   dDmax  Ef(eV)
siesta:    1    -2959.6361    -2960.2734    -2960.2734  0.0424 -4.2336
siesta:    2    -2959.6429    -2959.6147    -2959.6147  0.0317 -4.2903
siesta:    3    -2959.6331    -2959.6169    -2959.6169  0.0224 -4.2823
siesta:    4    -2959.6248    -2959.6194    -2959.6194  0.0043 -4.2661
siesta:    5    -2959.6245    -2959.6209    -2959.6209  0.0014 -4.2635
siesta:    6    -2959.6245    -2959.6223    -2959.6223  0.0010 -4.2636
Cycling the Broyden process...
siesta:    7    -2959.6244    -2959.6239    -2959.6239  0.0001 -4.2621

siesta: E_KS(eV) =            -2959.6244

siesta: Atomic forces (eV/Ang):
     1   -0.000002   -0.000002   -0.000001
     2    0.000006    0.000002   -0.000001
     3   -0.309815    0.277225    0.600892
     4    0.309842   -0.277242   -0.600891
     5    0.951425    0.444910   -0.054148
     6   -0.714627   -0.656735   -0.404999
     7    0.141682   -0.126474   -0.274395
     8   -0.951456   -0.444911    0.054156
     9    0.714631    0.656753    0.404982
    10   -0.141676    0.126488    0.274432
----------------------------------------
   Tot    0.000009    0.000015    0.000028
----------------------------------------
   Max    0.951456
   Res    0.436458    sqrt( Sum f_i^2 / 3N )
----------------------------------------
   Max    0.951456    constrained

Stress-tensor-Voigt (kbar):      150.56      160.39      177.16      -14.39        3.68      -10.83
(Free)E + p*V (eV/cell)    -2969.2847
Target enthalpy (eV/cell)    -2959.6244

siesta: Stress tensor (static) (eV/Ang**3):
         0.093968   -0.008985   -0.006762
        -0.008984    0.100104    0.002296
        -0.006762    0.002296    0.110572

siesta: Pressure (static):       -162.69956311  kBar

siesta: Stress tensor (total) (eV/Ang**3):
         0.093968   -0.008985   -0.006762
        -0.008984    0.100104    0.002296
        -0.006762    0.002296    0.110572

siesta: Pressure (total):       -162.69956311  kBar
Volume before coercion:      95.0805

* Maximum dynamic memory allocated =     9 MB

siesta:                 ==============================
                            Begin CG move =      8
                        ==============================

outcoor: Atomic coordinates (fractional):                   
   -0.00000000   -0.00000001    0.00000001   1       1  Mg
    0.49999999    0.50000000    0.49999999   1       2  Mg
    0.25008452    0.25000005    0.24991546   2       3  C
   -0.25008456   -0.25000006   -0.24991550   2       4  C
    0.54304214   -0.05391652    0.24736306   3       5  O
    0.25263687    0.55391593   -0.04304170   3       6  O
   -0.04520774    0.25000079    0.54520872   3       7  O
   -0.54304215    0.05391649   -0.24736299   3       8  O
   -0.25263694   -0.55391597    0.04304172   3       9  O
    0.04520775   -0.25000067   -0.54520874   3      10  O
 Kpoints in:           60 . Kpoints trimmed:           60
Auxiliary supercell needs to be larger than naive one...
Auxiliary supercell needs to be larger than naive one...
Auxiliary supercell needs to be larger than naive one...

siesta: k-grid: Number of k-points =    60
siesta: k-grid: Cutoff (effective) =    11.174 Ang
siesta: k-grid: Supercell and displacements
siesta: k-grid:    5  -5   0      0.500
siesta: k-grid:    0  -5   5      0.000
siesta: k-grid:    4   0   0      0.000
Naive supercell factors:     4    4    4
Auxiliary supercell needs to be larger than naive one...

superc: Internal auxiliary supercell:     5 x     5 x     4  =     100
superc: Number of atoms, orbitals, and projectors:   1000   3400   8000

outcell: Unit cell vectors (Ang):
        5.586615   -0.068868   -0.012860
        3.673864    4.239515   -0.061617
        3.546492    1.756560    3.943618

outcell: Cell vector modules (Ang)   :    5.587055    5.610219    5.587059
outcell: Cell angles (23,13,12) (deg):     49.7960     51.0075     49.7960
outcell: Cell volume (Ang**3)        :     95.1306
New_DM. Step:     9
Re-using DM from previous geometry...
Re-using DM without extrapolation (not allowed)
Density Matrix sparsity pattern changed.

InitMesh: MESH =    30 x    30 x    30 =       27000
InitMesh: Mesh cutoff (required, used) =   100.000   104.573 Ry

siesta: iscf   Eharris(eV)      E_KS(eV)   FreeEng(eV)   dDmax  Ef(eV)
siesta:    1    -2959.6957    -2959.2271    -2959.2271  0.0293 -4.3356
siesta:    2    -2959.7023    -2959.6832    -2959.6832  0.0262 -4.3097
siesta:    3    -2959.6953    -2959.6846    -2959.6846  0.0167 -4.3120
siesta:    4    -2959.6896    -2959.6862    -2959.6862  0.0034 -4.3125
siesta:    5    -2959.6895    -2959.6874    -2959.6874  0.0009 -4.3159

siesta: E_KS(eV) =            -2959.6876

siesta: Atomic forces (eV/Ang):
     1   -0.000001   -0.000000   -0.000000
     2    0.000001   -0.000000    0.000000
     3   -0.187892    0.168129    0.364437
     4    0.187899   -0.168130   -0.364428
     5   -0.027751    0.316373   -0.107213
     6   -0.009216   -0.283282    0.178987
     7    0.277344   -0.248042   -0.537728
     8    0.027749   -0.316369    0.107223
     9    0.009230    0.283280   -0.179000
    10   -0.277346    0.248042    0.537727
----------------------------------------
   Tot    0.000017    0.000001    0.000006
----------------------------------------
   Max    0.537728
   Res    0.237867    sqrt( Sum f_i^2 / 3N )
----------------------------------------
   Max    0.537728    constrained

Stress-tensor-Voigt (kbar):      153.09      173.49      206.24      -22.10       13.38      -27.78
(Free)E + p*V (eV/cell)    -2970.2330
Target enthalpy (eV/cell)    -2959.6876

siesta: Stress tensor (static) (eV/Ang**3):
         0.095550   -0.013542   -0.017457
        -0.013796    0.108282    0.008222
        -0.017340    0.008353    0.128723

siesta: Pressure (static):       -177.60567032  kBar

siesta: Stress tensor (total) (eV/Ang**3):
         0.095550   -0.013542   -0.017457
        -0.013796    0.108282    0.008222
        -0.017340    0.008353    0.128723

siesta: Pressure (total):       -177.60567032  kBar

cgvc: Finished line minimization    3.  Mean atomic displacement =    0.0211
Volume before coercion:      95.0853

* Maximum dynamic memory allocated =     9 MB

siesta:                 ==============================
                            Begin CG move =      9
                        ==============================

outcoor: Atomic coordinates (fractional):                   
   -0.00000001   -0.00000001    0.00000001   1       1  Mg
    0.49999999    0.50000000    0.49999999   1       2  Mg
    0.24902291    0.25000010    0.25097733   2       3  C
   -0.24902291   -0.25000008   -0.25097730   2       4  C
    0.54271718   -0.05265891    0.24732106   3       5  O
    0.25267911    0.55265836   -0.04271661   3       6  O
   -0.04352515    0.25000132    0.54352692   3       7  O
   -0.54271720    0.05265889   -0.24732094   3       8  O
   -0.25267909   -0.55265835    0.04271663   3       9  O
    0.04352515   -0.25000120   -0.54352695   3      10  O
Auxiliary supercell needs to be larger than naive one...
 Kpoints in:           60 . Kpoints trimmed:           60
Auxiliary supercell needs to be larger than naive one...
Auxiliary supercell needs to be larger than naive one...

siesta: k-grid: Number of k-points =    60
siesta: k-grid: Cutoff (effective) =    11.197 Ang
siesta: k-grid: Supercell and displacements
siesta: k-grid:    5  -5   0      0.500
siesta: k-grid:    0  -5   5      0.000
siesta: k-grid:    4   0   0      0.000
Naive supercell factors:     4    4    4
Auxiliary supercell needs to be larger than naive one...

superc: Internal auxiliary supercell:     5 x     5 x     4  =     100
superc: Number of atoms, orbitals, and projectors:   1000   3400   8000

outcell: Unit cell vectors (Ang):
        5.598323   -0.058336    0.000712
        3.689520    4.248029   -0.057472
        3.566844    1.759358    3.940429

outcell: Cell vector modules (Ang)   :    5.598627    5.626866    5.598633
outcell: Cell angles (23,13,12) (deg):     49.6246     50.6636     49.6245
outcell: Cell volume (Ang**3)        :     95.1306
New_DM. Step:    10
Re-using DM from previous geometry...
Re-using DM without extrapolation (not allowed)
Density Matrix sparsity pattern changed.

InitMesh: MESH =    30 x    30 x    30 =       27000
InitMesh: Mesh cutoff (required, used) =   100.000   103.799 Ry

siesta: iscf   Eharris(eV)      E_KS(eV)   FreeEng(eV)   dDmax  Ef(eV)
siesta:    1    -2959.7238    -2960.1500    -2960.1500  0.0193 -4.1645
siesta:    2    -2959.7484    -2959.7027    -2959.7027  0.0337 -4.2336
siesta:    3    -2959.7287    -2959.7061    -2959.7061  0.0200 -4.2202
siesta:    4    -2959.7161    -2959.7088    -2959.7088  0.0040 -4.1982
siesta:    5    -2959.7158    -2959.7116    -2959.7116  0.0013 -4.1953
siesta:    6    -2959.7158    -2959.7120    -2959.7120  0.0012 -4.1952
Cycling the Broyden process...
siesta:    7    -2959.7158    -2959.7150    -2959.7150  0.0000 -4.1942

siesta: E_KS(eV) =            -2959.7158

siesta: Atomic forces (eV/Ang):
     1    0.000001   -0.000001   -0.000001
     2    0.000000   -0.000001    0.000002
     3    0.069221   -0.061899   -0.134164
     4   -0.069215    0.061889    0.134163
     5   -0.052973    0.061914   -0.107080
     6    0.088648   -0.093904    0.037852
     7   -0.031552    0.028530    0.061566
     8    0.052966   -0.061918    0.107073
     9   -0.088652    0.093916   -0.037862
    10    0.031557   -0.028514   -0.061554
----------------------------------------
   Tot    0.000002    0.000013   -0.000007
----------------------------------------
   Max    0.134164
   Res    0.067546    sqrt( Sum f_i^2 / 3N )
----------------------------------------
   Max    0.134164    constrained

Stress-tensor-Voigt (kbar):      150.81      159.89      174.98      -10.62        5.54      -12.10
(Free)E + p*V (eV/cell)    -2969.3283
Target enthalpy (eV/cell)    -2959.7158

siesta: Stress tensor (static) (eV/Ang**3):
         0.094128   -0.006631   -0.007552
        -0.006631    0.099796    0.003460
        -0.007552    0.003460    0.109213

siesta: Pressure (static):       -161.89530070  kBar

siesta: Stress tensor (total) (eV/Ang**3):
         0.094128   -0.006631   -0.007552
        -0.006631    0.099796    0.003460
        -0.007552    0.003460    0.109213

siesta: Pressure (total):       -161.89530070  kBar
Volume before coercion:      95.0867

* Maximum dynamic memory allocated =     9 MB

siesta:                 ==============================
                            Begin CG move =     10
                        ==============================

outcoor: Atomic coordinates (fractional):                   
   -0.00000001   -0.00000001    0.00000000   1       1  Mg
    0.50000000    0.50000001    0.50000000   1       2  Mg
    0.24732432    0.25000016    0.25267631   2       3  C
   -0.24732427   -0.25000011   -0.25267618   2       4  C
    0.54219726   -0.05064673    0.24725385   3       5  O
    0.25274669    0.55064624   -0.04219646   3       6  O
   -0.04083302    0.25000217    0.54083604   3       7  O
   -0.54219728    0.05064673   -0.24725366   3       8  O
   -0.25274654   -0.55064617    0.04219647   3       9  O
    0.04083300   -0.25000205   -0.54083609   3      10  O
 Kpoints in:           60 . Kpoints trimmed:           60
Auxiliary supercell needs to be larger than naive one...
Auxiliary supercell needs to be larger than naive one...
Auxiliary supercell needs to be larger than naive one...

siesta: k-grid: Number of k-points =    60
siesta: k-grid: Cutoff (effective) =    11.235 Ang
siesta: k-grid: Supercell and displacements
siesta: k-grid:    5  -5   0      0.500
siesta: k-grid:    0  -5   5      0.000
siesta: k-grid:    4   0   0      0.000
Naive supercell factors:     4    4    4
Auxiliary supercell needs to be larger than naive one...

superc: Internal auxiliary supercell:     5 x     5 x     4  =     100
superc: Number of atoms, orbitals, and projectors:   1000   3400   8000

outcell: Unit cell vectors (Ang):
        5.617181   -0.041486    0.022427
        3.714652    4.261748   -0.050843
        3.599485    1.763874    3.935414

outcell: Cell vector modules (Ang)   :    5.617379    5.653646    5.617386
outcell: Cell angles (23,13,12) (deg):     49.3520     50.1163     49.3520
outcell: Cell volume (Ang**3)        :     95.1306
New_DM. Step:    11
Re-using DM from previous geometry...
Re-using DM without extrapolation (not allowed)
Density Matrix sparsity pattern changed.

InitMesh: MESH =    30 x    30 x    30 =       27000
InitMesh: Mesh cutoff (required, used) =   100.000   102.574 Ry

siesta: iscf   Eharris(eV)      E_KS(eV)   FreeEng(eV)   dDmax  Ef(eV)
siesta:    1    -2959.7012    -2960.4186    -2960.4186  0.0313 -3.8987
siesta:    2    -2959.7591    -2959.6487    -2959.6487  0.0505 -4.0528
siesta:    3    -2959.7125    -2959.6569    -2959.6569  0.0312 -4.0217
siesta:    4    -2959.6816    -2959.6636    -2959.6636  0.0061 -3.9698
siesta:    5    -2959.6809    -2959.6700    -2959.6700  0.0024 -3.9650
siesta:    6    -2959.6809    -2959.6718    -2959.6718  0.0018 -3.9644
Cycling the Broyden process...
siesta:    7    -2959.6808    -2959.6790    -2959.6790  0.0001 -3.9627

siesta: E_KS(eV) =            -2959.6799

siesta: Atomic forces (eV/Ang):
     1    0.000003    0.000002    0.000002
     2   -0.000000    0.000001    0.000001
     3    0.521607   -0.466515   -1.011998
     4   -0.521612    0.466517    1.011983
     5   -0.064136   -0.293495   -0.149115
     6    0.239400    0.136471   -0.190984
     7   -0.583197    0.522274    1.131567
     8    0.064127    0.293502    0.149106
     9   -0.239403   -0.136488    0.190991
    10    0.583185   -0.522263   -1.131555
----------------------------------------
   Tot   -0.000026    0.000007   -0.000002
----------------------------------------
   Max    1.131567
   Res    0.492074    sqrt( Sum f_i^2 / 3N )
----------------------------------------
   Max    1.131567    constrained

Stress-tensor-Voigt (kbar):      147.04      144.95      124.90        7.75      -11.00       14.26
(Free)E + p*V (eV/cell)    -2967.9309
Target enthalpy (eV/cell)    -2959.6799

siesta: Stress tensor (static) (eV/Ang**3):
         0.091774    0.004840    0.008898
         0.004837    0.090467   -0.006869
         0.008899   -0.006868    0.077958

siesta: Pressure (static):       -138.96316984  kBar

siesta: Stress tensor (total) (eV/Ang**3):
         0.091774    0.004840    0.008898
         0.004837    0.090467   -0.006869
         0.008899   -0.006868    0.077958

siesta: Pressure (total):       -138.96316984  kBar
Volume before coercion:      95.0858

* Maximum dynamic memory allocated =     9 MB

outcoor: Final (unrelaxed) atomic coordinates (fractional): 
   -0.00000001   -0.00000001    0.00000000   1       1  Mg
    0.49999999    0.50000000    0.50000000   1       2  Mg
    0.24887556    0.25000010    0.25112471   2       3  C
   -0.24887556   -0.25000008   -0.25112467   2       4  C
    0.54267208   -0.05248436    0.24731523   3       5  O
    0.25268497    0.55248381   -0.04267149   3       6  O
   -0.04329162    0.25000139    0.54329349   3       7  O
   -0.54267210    0.05248434   -0.24731510   3       8  O
   -0.25268494   -0.55248380    0.04267150   3       9  O
    0.04329161   -0.25000127   -0.54329352   3      10  O

outcell: Unit cell vectors (Ang):
        5.599953   -0.056874    0.002596
        3.691696    4.249215   -0.056897
        3.569671    1.759748    3.939989

outcell: Cell vector modules (Ang)   :    5.600243    5.629182    5.600248
outcell: Cell angles (23,13,12) (deg):     49.6008     50.6160     49.6008
outcell: Cell volume (Ang**3)        :     95.1306

siesta: Program's energy decomposition (eV):
siesta: Ebs     =      -596.335787
siesta: Eions   =      5228.674091
siesta: Ena     =      1099.237697
siesta: Ekin    =      2242.699741
siesta: Enl     =      -348.386608
siesta: DEna    =       -35.173582
siesta: DUscf   =         6.533453
siesta: DUext   =         0.000000
siesta: Exc     =      -695.916533
siesta: eta*DQ  =         0.000000
siesta: Emadel  =         0.000000
siesta: Emeta   =         0.000000
siesta: Emolmec =         0.000000
siesta: Ekinion =         0.000000
siesta: Eharris =     -2959.680838
siesta: Etot    =     -2959.679924
siesta: FreeEng =     -2959.679924

siesta: Final energy (eV):
siesta:  Band Struct. =    -596.335787
siesta:       Kinetic =    2242.699741
siesta:       Hartree =     951.647918
siesta:    Ext. field =       0.000000
siesta:   Exch.-corr. =    -695.916533
siesta:  Ion-electron =   -3830.445750
siesta:       Ion-ion =   -1627.665300
siesta:       Ekinion =       0.000000
siesta:         Total =   -2959.679924

siesta: Atomic forces (eV/Ang):
siesta:      1    0.000003    0.000002    0.000002
siesta:      2   -0.000000    0.000001    0.000001
siesta:      3    0.521607   -0.466515   -1.011998
siesta:      4   -0.521612    0.466517    1.011983
siesta:      5   -0.064136   -0.293495   -0.149115
siesta:      6    0.239400    0.136471   -0.190984
siesta:      7   -0.583197    0.522274    1.131567
siesta:      8    0.064127    0.293502    0.149106
siesta:      9   -0.239403   -0.136488    0.190991
siesta:     10    0.583185   -0.522263   -1.131555
siesta: ----------------------------------------
siesta:    Tot   -0.000026    0.000007   -0.000002

siesta: Stress tensor (static) (eV/Ang**3):
siesta:     0.091774    0.004840    0.008898
siesta:     0.004837    0.090467   -0.006869
siesta:     0.008899   -0.006868    0.077958

siesta: Constrained stress tensor (static) (eV/Ang**3):
siesta:     0.091774    0.004839    0.008898
siesta:     0.004839    0.090467   -0.006869
siesta:     0.008898   -0.006869    0.077958

siesta: Cell volume =         95.130619 Ang**3

siesta: Pressure (static):
siesta:                Solid            Molecule  Units
siesta:          -0.00094463         -0.00114169  Ry/Bohr**3
siesta:          -0.08673305         -0.10482654  eV/Ang**3
siesta:        -138.96316984       -167.95245503  kBar
(Free)E+ p_basis*V_orbitals  =       -2958.485627
(Free)Eharris+ p_basis*V_orbitals  =       -2958.487497

* Maximum dynamic memory allocated : Node    0 =     9 MB
* Maximum dynamic memory allocated : Node    1 =     9 MB
* Maximum dynamic memory allocated : Node    2 =     9 MB
* Maximum dynamic memory allocated : Node    3 =     9 MB

* Maximum memory occured during ranger                        

timer: CPU execution times:
timer:  Routine       Calls   Time/call    Tot.time        %
timer:  siesta            1     163.902     163.902   100.00
timer:  Setup             1       2.256       2.256     1.38
timer:  bands             1       0.000       0.000     0.00
timer:  writewave         1       0.000       0.000     0.00
timer:  KSV_init          1       0.000       0.000     0.00
timer:  IterMD           11      14.686     161.549    98.56
timer:  hsparse          11       0.030       0.327     0.20
timer:  overlap          11       0.011       0.118     0.07
timer:  IterSCF          82       1.800     147.618    90.06
timer:  kinefsm          22       0.008       0.177     0.11
timer:  nlefsm           22       0.300       6.606     4.03
timer:  DHSCF            93       0.324      30.100    18.36
timer:  DHSCF1           11       0.169       1.863     1.14
timer:  DHSCF2           11       1.428      15.712     9.59
timer:  REORD           580       0.000       0.047     0.03
timer:  POISON          104       0.008       0.801     0.49
timer:  DHSCF3           93       0.089       8.254     5.04
timer:  rhoofd           93       0.037       3.484     2.13
timer:  cellXC           93       0.012       1.080     0.66
timer:  vmat             93       0.026       2.396     1.46
timer:  MolMec           22       0.000       0.000     0.00
timer:  diagon           82       1.418     116.247    70.92
timer:  c-eigval       4938       0.011      52.105    31.79
timer:  c-buildHS      4938       0.001       3.227     1.97
timer:  cdiag          9876       0.010      99.824    60.90
timer:  cdiag1         9876       0.000       2.718     1.66
timer:  cdiag2         9876       0.001       9.731     5.94
timer:  cdiag3         9876       0.008      78.457    47.87
timer:  cdiag4         9876       0.000       1.325     0.81
timer:  c-eigvec       4938       0.011      54.852    33.47
timer:  c-buildD       4938       0.002       8.997     5.49
timer:  DHSCF4           11       0.386       4.243     2.59
timer:  dfscf            11       0.174       1.919     1.17
timer:  overfsm          11       0.004       0.047     0.03
timer:  optical           1       0.074       0.074     0.05
  

elaps: ELAPSED times:
elaps:  Routine       Calls   Time/call    Tot.time        %
elaps:  siesta            1      41.150      41.150   100.00
elaps:  Setup             1       0.624       0.624     1.52
elaps:  bands             1       0.000       0.000     0.00
elaps:  writewave         1       0.001       0.001     0.00
elaps:  KSV_init          1       0.000       0.000     0.00
elaps:  IterMD           11       3.682      40.501    98.42
elaps:  hsparse          11       0.010       0.112     0.27
elaps:  overlap          11       0.003       0.031     0.08
elaps:  IterSCF          82       0.450      36.926    89.74
elaps:  kinefsm          22       0.002       0.048     0.12
elaps:  nlefsm           22       0.115       2.524     6.13
elaps:  DHSCF            93       0.081       7.576    18.41
elaps:  DHSCF1           11       0.042       0.461     1.12
elaps:  DHSCF2           11       0.357       3.931     9.55
elaps:  REORD           580       0.000       0.008     0.02
elaps:  POISON          104       0.002       0.210     0.51
elaps:  DHSCF3           93       0.022       2.063     5.01
elaps:  rhoofd           93       0.011       0.990     2.41
elaps:  cellXC           93       0.003       0.269     0.65
elaps:  vmat             93       0.006       0.599     1.46
elaps:  MolMec           22       0.000       0.001     0.00
elaps:  diagon           82       0.355      29.085    70.68
elaps:  c-eigval       4938       0.003      13.034    31.67
elaps:  c-buildHS      4938       0.000       1.125     2.73
elaps:  cdiag          9876       0.002      24.065    58.48
elaps:  cdiag1         9876       0.000       1.063     2.58
elaps:  cdiag2         9876       0.000       1.914     4.65
elaps:  cdiag3         9876       0.002      20.128    48.91
elaps:  cdiag4         9876       0.000       0.449     1.09
elaps:  c-eigvec       4938       0.003      13.859    33.68
elaps:  c-buildD       4938       0.000       2.046     4.97
elaps:  DHSCF4           11       0.101       1.114     2.71
elaps:  dfscf            11       0.047       0.518     1.26
elaps:  overfsm          11       0.001       0.014     0.03
elaps:  optical           1       0.000       0.000     0.00
  
>> End of run:  24-MAR-2013  18:22:30
