Siesta Version  : v4.1-b4-351
Architecture    : x86_64-linux-n-62-26-19
Compiler version: GNU Fortran (GCC) 9.3.0
Compiler flags  : mpifort -m64 -fPIC -O3 -march=native -ftree-vectorize -fexpensive-optimizatioons -funroll-loops -fprefetch-loop-arrays -fno-second-underscore  -flto
PP flags        : -I/dtu/sw/dcc/SL73/2020-aug/generic/build-tools/1.0/include -I/dtu/sw/dcc/SL773/2020-aug/generic/gcc/9.3.0/include -I/dtu/sw/dcc/SL73/2020-aug/generic/gcc/9.3.0/include -I/dtu/sw/dcc/SL73/2020-aug/XeonE5-2660v3/gnu/9.3.0/zlib/1.2.11/include -I/dtu/sw/dcc/SL73/2020-aug/generic/numactl/2.0.12/include -I/dtu/sw/dcc/SL73/2020-aug/XeonE5-2660v3/gnu/9.3.0/libxml2/2.9.10/include -I/dtu/sw/dcc/SL73/2020-aug/XeonE5-2660v3/gnu/9.3.0/hwloc/2.2.0/include -I/dtu/sw/dcc/SL73/2020-aug/XeonE5-2660v3/gnu/9.3.0/knem/1.1.4/include -I/dtu/sw/dcc/SL73/2020-aug/XeonE5-2660v3/gnu/9.3.0/ucx/1.8.1/include -I/dtu/sw/dcc/SL73/2020-aug/XeonE5-2660v3/gnu/9.3.0/openmpi/4.0.4/include -I/dtu/sw/dcc/SL73/2020-aug/XeonE5-2660v3/gnu/9.3.0/szip/2.1.1/include -I/dtu/sw/dcc/SL73/2020-aug/XeonE5-2660v3/gnu/9.3.0/hdf5/1.12.0/include -I/dtu/sw/dcc/SL73/2020-aug/XeonE5-2660v3/gnu/9.3.0/pnetcdf/1.12.1/include -I/dtu/sw/dcc/SL73/2020-aug/generic/gen-zlib/1.2.11/include -I/dtu/sw/dcc/SL73/2020-aug/generic/openssl/1.1.1/include -I/dtu/sw/dcc/SL73/2020-aug/generic/libssh2/1.8.2/include -I/dtu/sw/dcc/SL73/2020-aug/generic/curl/7.65.1/include -I/dtu/sw/dcc/SL73/2020-aug/XeonE5-2660v3/gnu/9.3.0/netcdf/4.7.4/include -I/dtu/sw/dcc/SL73/2020-aug/XeonE5-2660v3/gnu/9.3.0/flook/0.8.1/include -I/dtu/sw/dcc/SL73/2020-aug/XeonE5-2660v3/gnu/9.3.0/fftw/3.3.8/include -I/dtu/sw/dcc/SL73/2020-aug/XeonE5-2660v3/gnu/9.3.0/parmetis/4.0.3/include -I/dtu/sw/dcc/SL73/2020-aug/XeonE5-2660v3/gnu/9.3.0/scalapack/2.1.0/include -I/dtu/sw/dcc/SL73/2020-aug/XeonE5-2660v3/gnu/9.3.0/lapack/3.9.0/include -I/dtu/sw/dcc/SL73/2020-aug/XeonE5-2660v3/gnu/9.3.0/blis/0.7.0/include -I/dtu/sw/dcc/SL73/2020-aug/XeonE5-2660v3/gnu/9.3.0/scotch/6.0.9/include -I/dtu/sw/dcc/SL73/2020-aug/XeonE5-2660v3/gnu/9.3.0/mumps/5.3.3/include -I/dtu/sw/dcc/SL73/2020-aug/XeonE5-2660v3/gnu/9.3.0/elpa/2020.05.001/include -DSIESTA__ELPA -DMPI -DFC_HAVE_FLUSH -DFC_HAVE_ABORT -DCDF -DCDF4 -DSIESTA__FLOOK  -DNCDF -DNCDF_4 -DNCDF_PARALLEL -DTS_NOCHECKS -DSIESTA__METIS -DSIESTA__MUMPS -DSIESTA__MRRR -I/dtu/sw/dcc/SL73/2020-aug/XeonE5-2660v3/gnu/9.3.0/elpa/2020.05.001/include/elpa
Libraries       : libncdf.a libfdict.a -lnetcdff -lnetcdf -lpnetcdf -lhdf5_hl -lhdf5 -lz  -lzmuumps -lmumps_common -lesmumps -lscotch -lscotcherr -lpord -lparmetis -lmetis -lelpa -lscalapack -llapack -lblis  -L/dtu/sw/dcc/SL73/2020-aug/XeonE5-2660v3/gnu/9.3.0/flook/0.8.1/lib -Wl,-rpath=/dtu/sw/dcc/SL73/2020-aug/XeonE5-2660v3/gnu/9.3.0/flook/0.8.1/lib -lflookall -ldl  -flto -fuse-linker-plugin  -lmetis
PARALLEL version
NetCDF support
NetCDF-4 support
NetCDF-4 MPI-IO support
METIS ordering support
Lua support

* Running on 8 nodes in parallel
>> Start of run:  22-JAN-2021  21:48:36

                           ***********************       
                           *  WELCOME TO SIESTA  *       
                           ***********************       

reinit: Reading from ../constant_volume.fdf

reinit: -----------------------------------------------------------------------
reinit: System Name: MgCo3 R-3c test -- SZ, 100 R
reinit: -----------------------------------------------------------------------
reinit: System Label: constant_volume
reinit: -----------------------------------------------------------------------

initatom: Reading input for the pseudopotentials and atomic orbitals ----------
Species number:   1 Atomic number:   12 Label: Mg
Species number:   2 Atomic number:    6 Label: C
Species number:   3 Atomic number:    8 Label: O

Ground state valence configuration:   3s02
Reading pseudopotential information in formatted form from Mg.psf

Valence configuration for pseudopotential generation:
3s( 2.00) rc: 2.59
3p( 0.00) rc: 2.59
3d( 0.00) rc: 2.59
4f( 0.00) rc: 2.59
Ground state valence configuration:   2s02  2p02
Reading pseudopotential information in formatted form from C.psf

Valence configuration for pseudopotential generation:
2s( 2.00) rc: 1.49
2p( 2.00) rc: 1.52
3d( 0.00) rc: 1.58
Ground state valence configuration:   2s02  2p04
Reading pseudopotential information in formatted form from O.psf

Valence configuration for pseudopotential generation:
2s( 2.00) rc: 1.14
2p( 4.00) rc: 1.14
3d( 0.00) rc: 1.14
4f( 0.00) rc: 1.14
For Mg, standard SIESTA heuristics set lmxkb to 1
 (one more than the basis l, including polarization orbitals).
Use PS.lmax or PS.KBprojectors blocks to override.
For C, standard SIESTA heuristics set lmxkb to 2
 (one more than the basis l, including polarization orbitals).
Use PS.lmax or PS.KBprojectors blocks to override.
For O, standard SIESTA heuristics set lmxkb to 2
 (one more than the basis l, including polarization orbitals).
Use PS.lmax or PS.KBprojectors blocks to override.

<basis_specs>
===============================================================================
Mg                   Z=  12    Mass=  24.310        Charge= 0.17977+309
Lmxo=0 Lmxkb= 1    BasisType=split      Semic=F
L=0  Nsemic=0  Cnfigmx=3
          i=1  nzeta=1  polorb=0  (3s)
            splnorm:   0.15000    
               vcte:    0.0000    
               rinn:    0.0000    
               qcoe:    0.0000    
               qyuk:    0.0000    
               qwid:   0.10000E-01
                rcs:    0.0000    
            lambdas:    1.0000    
-------------------------------------------------------------------------------
L=0  Nkbl=1  erefs: 0.17977+309
L=1  Nkbl=1  erefs: 0.17977+309
===============================================================================
</basis_specs>

atom: Called for Mg                    (Z =  12)

read_vps: Pseudopotential generation method:
read_vps: ATM3      Troullier-Martins                       
Valence charge for ps generation:    2.00000

xc_check: Exchange-correlation functional:
xc_check: Ceperley-Alder
V l=0 = -2*Zval/r beyond r=  3.5878
V l=1 = -2*Zval/r beyond r=  3.5878
All V_l potentials equal beyond r=  2.5600
This should be close to max(r_c) in ps generation
All pots = -2*Zval/r beyond r=  3.5878
Using large-core scheme for Vlocal

atom: Estimated core radius    3.58779

atom: Including non-local core corrections could be a good idea
atom: Maximum radius for 4*pi*r*r*local-pseudopot. charge    3.91588
atom: Maximum radius for r*vlocal+2*Zval:    3.63292
GHOST: No ghost state for L =  0
GHOST: No ghost state for L =  1

KBgen: Kleinman-Bylander projectors: 
   l= 0   rc=  2.657845   el= -0.351328   Ekb=  2.184400   kbcos=  0.257081
   l= 1   rc=  2.657845   el= -0.101748   Ekb=  0.525536   kbcos=  0.270508

KBgen: Total number of  Kleinman-Bylander projectors:    4
atom: -------------------------------------------------------------------------

atom: SANKEY-TYPE ORBITALS:

SPLIT: Orbitals with angular momentum L= 0

SPLIT: Basis orbitals for state 3s

SPLIT: PAO cut-off radius determined from an
SPLIT: energy shift=  0.020000 Ry

   izeta = 1
                 lambda =    1.000000
                     rc =    6.619780
                 energy =   -0.332103
                kinetic =    0.289627
    potential(screened) =   -0.621729
       potential(ionic) =   -1.387191
atom: Total number of Sankey-type orbitals:  1

atm_pop: Valence configuration (for local Pseudopot. screening):
 3s( 2.00)                                                            
Vna: chval, zval:    2.00000   2.00000

Vna:  Cut-off radius for the neutral-atom potential:   6.619780

atom: _________________________________________________________________________

<basis_specs>
===============================================================================
C                    Z=   6    Mass=  12.010        Charge= 0.17977+309
Lmxo=1 Lmxkb= 2    BasisType=split      Semic=F
L=0  Nsemic=0  Cnfigmx=2
          i=1  nzeta=1  polorb=0  (2s)
            splnorm:   0.15000    
               vcte:    0.0000    
               rinn:    0.0000    
               qcoe:    0.0000    
               qyuk:    0.0000    
               qwid:   0.10000E-01
                rcs:    0.0000    
            lambdas:    1.0000    
L=1  Nsemic=0  Cnfigmx=2
          i=1  nzeta=1  polorb=0  (2p)
            splnorm:   0.15000    
               vcte:    0.0000    
               rinn:    0.0000    
               qcoe:    0.0000    
               qyuk:    0.0000    
               qwid:   0.10000E-01
                rcs:    0.0000    
            lambdas:    1.0000    
-------------------------------------------------------------------------------
L=0  Nkbl=1  erefs: 0.17977+309
L=1  Nkbl=1  erefs: 0.17977+309
L=2  Nkbl=1  erefs: 0.17977+309
===============================================================================
</basis_specs>

atom: Called for C                     (Z =   6)

read_vps: Pseudopotential generation method:
read_vps: ATM3      Troullier-Martins                       
Valence charge for ps generation:    4.00000

xc_check: Exchange-correlation functional:
xc_check: Ceperley-Alder
V l=0 = -2*Zval/r beyond r=  1.4666
V l=1 = -2*Zval/r beyond r=  1.5038
V l=2 = -2*Zval/r beyond r=  1.5612
All V_l potentials equal beyond r=  1.5612
This should be close to max(r_c) in ps generation
All pots = -2*Zval/r beyond r=  1.5612

VLOCAL1: 99.0% of the norm of Vloc inside     17.809 Ry
VLOCAL1: 99.9% of the norm of Vloc inside     40.586 Ry
atom: Maximum radius for 4*pi*r*r*local-pseudopot. charge    1.88329
atom: Maximum radius for r*vlocal+2*Zval:    1.62091
GHOST: No ghost state for L =  0
GHOST: No ghost state for L =  1
GHOST: No ghost state for L =  2

KBgen: Kleinman-Bylander projectors: 
   l= 0   rc=  1.747182   el= -1.001947   Ekb=  5.181700   kbcos=  0.300603
   l= 1   rc=  1.747182   el= -0.398598   Ekb= -4.328763   kbcos= -0.367074
   l= 2   rc=  1.955272   el=  0.002326   Ekb= -1.016175   kbcos= -0.009979

KBgen: Total number of  Kleinman-Bylander projectors:    9
atom: -------------------------------------------------------------------------

atom: SANKEY-TYPE ORBITALS:

SPLIT: Orbitals with angular momentum L= 0

SPLIT: Basis orbitals for state 2s

SPLIT: PAO cut-off radius determined from an
SPLIT: energy shift=  0.020000 Ry

   izeta = 1
                 lambda =    1.000000
                     rc =    4.191849
                 energy =   -0.983897
                kinetic =    0.886956
    potential(screened) =   -1.870853
       potential(ionic) =   -5.479661

SPLIT: Orbitals with angular momentum L= 1

SPLIT: Basis orbitals for state 2p

SPLIT: PAO cut-off radius determined from an
SPLIT: energy shift=  0.020000 Ry

   izeta = 1
                 lambda =    1.000000
                     rc =    4.870301
                 energy =   -0.379093
                kinetic =    2.545357
    potential(screened) =   -2.924450
       potential(ionic) =   -6.433151
atom: Total number of Sankey-type orbitals:  4

atm_pop: Valence configuration (for local Pseudopot. screening):
 2s( 2.00)                                                            
 2p( 2.00)                                                            
Vna: chval, zval:    4.00000   4.00000

Vna:  Cut-off radius for the neutral-atom potential:   4.870301

atom: _________________________________________________________________________

<basis_specs>
===============================================================================
O                    Z=   8    Mass=  16.000        Charge= 0.17977+309
Lmxo=1 Lmxkb= 2    BasisType=split      Semic=F
L=0  Nsemic=0  Cnfigmx=2
          i=1  nzeta=1  polorb=0  (2s)
            splnorm:   0.15000    
               vcte:    0.0000    
               rinn:    0.0000    
               qcoe:    0.0000    
               qyuk:    0.0000    
               qwid:   0.10000E-01
                rcs:    0.0000    
            lambdas:    1.0000    
L=1  Nsemic=0  Cnfigmx=2
          i=1  nzeta=1  polorb=0  (2p)
            splnorm:   0.15000    
               vcte:    0.0000    
               rinn:    0.0000    
               qcoe:    0.0000    
               qyuk:    0.0000    
               qwid:   0.10000E-01
                rcs:    0.0000    
            lambdas:    1.0000    
-------------------------------------------------------------------------------
L=0  Nkbl=1  erefs: 0.17977+309
L=1  Nkbl=1  erefs: 0.17977+309
L=2  Nkbl=1  erefs: 0.17977+309
===============================================================================
</basis_specs>

atom: Called for O                     (Z =   8)

read_vps: Pseudopotential generation method:
read_vps: ATM3      Troullier-Martins                       
Valence charge for ps generation:    6.00000

xc_check: Exchange-correlation functional:
xc_check: Ceperley-Alder
V l=0 = -2*Zval/r beyond r=  1.1278
V l=1 = -2*Zval/r beyond r=  1.1278
V l=2 = -2*Zval/r beyond r=  1.1278
All V_l potentials equal beyond r=  1.1278
This should be close to max(r_c) in ps generation
All pots = -2*Zval/r beyond r=  1.1278

VLOCAL1: 99.0% of the norm of Vloc inside     34.126 Ry
VLOCAL1: 99.9% of the norm of Vloc inside     77.774 Ry
atom: Maximum radius for 4*pi*r*r*local-pseudopot. charge    1.37759
atom: Maximum radius for r*vlocal+2*Zval:    1.18566
GHOST: No ghost state for L =  0
GHOST: No ghost state for L =  1
GHOST: No ghost state for L =  2

KBgen: Kleinman-Bylander projectors: 
   l= 0   rc=  1.294105   el= -1.742414   Ekb=  9.135903   kbcos=  0.326910
   l= 1   rc=  1.294105   el= -0.676589   Ekb= -8.124878   kbcos= -0.395047
   l= 2   rc=  1.448233   el=  0.002386   Ekb= -2.039267   kbcos= -0.003484

KBgen: Total number of  Kleinman-Bylander projectors:    9
atom: -------------------------------------------------------------------------

atom: SANKEY-TYPE ORBITALS:

SPLIT: Orbitals with angular momentum L= 0

SPLIT: Basis orbitals for state 2s

SPLIT: PAO cut-off radius determined from an
SPLIT: energy shift=  0.020000 Ry

   izeta = 1
                 lambda =    1.000000
                     rc =    3.305093
                 energy =   -1.723766
                kinetic =    1.614911
    potential(screened) =   -3.338677
       potential(ionic) =  -11.304675

SPLIT: Orbitals with angular momentum L= 1

SPLIT: Basis orbitals for state 2p

SPLIT: PAO cut-off radius determined from an
SPLIT: energy shift=  0.020000 Ry

   izeta = 1
                 lambda =    1.000000
                     rc =    3.937239
                 energy =   -0.658841
                kinetic =    5.005986
    potential(screened) =   -5.664827
       potential(ionic) =  -13.452360
atom: Total number of Sankey-type orbitals:  4

atm_pop: Valence configuration (for local Pseudopot. screening):
 2s( 2.00)                                                            
 2p( 4.00)                                                            
Vna: chval, zval:    6.00000   6.00000

Vna:  Cut-off radius for the neutral-atom potential:   3.937239

atom: _________________________________________________________________________

prinput: Basis input ----------------------------------------------------------

PAO.BasisType split     

%block ChemicalSpeciesLabel
    1   12 Mg                      # Species index, atomic number, species label
    2    6 C                       # Species index, atomic number, species label
    3    8 O                       # Species index, atomic number, species label
%endblock ChemicalSpeciesLabel

%block PAO.Basis                 # Define Basis set
Mg                    1                    # Species label, number of l-shells
 n=3   0   1                         # n, l, Nzeta 
   6.620   
   1.000   
C                     2                    # Species label, number of l-shells
 n=2   0   1                         # n, l, Nzeta 
   4.192   
   1.000   
 n=2   1   1                         # n, l, Nzeta 
   4.870   
   1.000   
O                     2                    # Species label, number of l-shells
 n=2   0   1                         # n, l, Nzeta 
   3.305   
   1.000   
 n=2   1   1                         # n, l, Nzeta 
   3.937   
   1.000   
%endblock PAO.Basis

prinput: ----------------------------------------------------------------------

Dumping basis to NetCDF file Mg.ion.nc
Dumping basis to NetCDF file C.ion.nc
Dumping basis to NetCDF file O.ion.nc
coor:   Atomic-coordinates input format  =     Fractional

siesta: Atomic coordinates (Bohr) and species
siesta:      0.00000   0.00000   0.00000  1        1
siesta:     12.37759   5.72419   3.74139  1        2
siesta:      6.18879   2.86210   1.87070  2        3
siesta:     -6.18879  -2.86210  -1.87070  2        4
siesta:      7.18051   0.64401   1.87070  3        5
siesta:      6.26741   4.12249  -0.20503  3        6
siesta:      5.11846   3.81979   3.94642  3        7
siesta:     -7.18051  -0.64401  -1.87070  3        8
siesta:     -6.26741  -4.12249   0.20503  3        9
siesta:     -5.11846  -3.81979  -3.94642  3       10

siesta: System type = bulk      

initatomlists: Number of atoms, orbitals, and projectors:     10    34    80

siesta: ******************** Simulation parameters ****************************
siesta:
siesta: The following are some of the parameters of the simulation.
siesta: A complete list of the parameters used, including default values,
siesta: can be found in file out.fdf
siesta:
redata: Spin configuration                          = none
redata: Number of spin components                   = 1
redata: Time-Reversal Symmetry                      = T
redata: Spin spiral                                 = F
redata: Long output                                 =   F
redata: Number of Atomic Species                    =        3
redata: Charge density info will appear in .RHO file
redata: Write Mulliken Pop.                         = NO
redata: Matel table size (NRTAB)                    =     1024
redata: Mesh Cutoff                                 =   100.0000 Ry
redata: Net charge of the system                    =     0.0000 |e|
redata: Min. number of SCF Iter                     =        0
redata: Max. number of SCF Iter                     =     1000
redata: SCF convergence failure will abort job
redata: SCF mix quantity                            = Hamiltonian
redata: Mix DM or H after convergence               =   F
redata: Recompute H after scf cycle                 =   F
redata: Mix DM in first SCF step                    =   T
redata: Write Pulay info on disk                    =   F
redata: New DM Occupancy tolerance                  = 0.000000000001
redata: No kicks to SCF
redata: DM Mixing Weight for Kicks                  =     0.5000
redata: Require Harris convergence for SCF          =   F
redata: Harris energy tolerance for SCF             =     0.000100 eV
redata: Require DM convergence for SCF              =   T
redata: DM tolerance for SCF                        =     0.001000
redata: Require EDM convergence for SCF             =   F
redata: EDM tolerance for SCF                       =     0.001000 eV
redata: Require H convergence for SCF               =   T
redata: Hamiltonian tolerance for SCF               =     0.001000 eV
redata: Require (free) Energy convergence for SCF   =   F
redata: (free) Energy tolerance for SCF             =     0.000100 eV
redata: Using Saved Data (generic)                  =   F
redata: Use continuation files for DM               =   T
redata: Neglect nonoverlap interactions             =   F
redata: Method of Calculation                       = Diagonalization
redata: Electronic Temperature                      =   299.9869 K
redata: Fix the spin of the system                  =   F
redata: Dynamics option                             = CG coord. optimization
redata: Variable cell                               =   T
redata: Use continuation files for CG               =   F
redata: Max atomic displ per move                   =     0.1058 Ang
redata: Maximum number of optimization moves        =       10
redata: Force tolerance                             =     0.0400 eV/Ang
redata: Stress tolerance                            =     1.0000 GPa
mix.SCF: Broyden mixing                          = Broyden
mix.SCF:    History steps                        = 4
mix.SCF:    Linear mixing weight                 =     0.100000
mix.SCF:    Inverse Jacobian weight              =     0.100000
mix.SCF:    Weight prime                         =     0.100000
mix.SCF:    SVD condition                        = 0.1000E-07
redata: Save all siesta data in one NC              =   F
redata: ***********************************************************************

%block SCF.Mixers
  Broyden
%endblock SCF.Mixers

%block SCF.Mixer.Broyden
  # Mixing method
  method broyden

  # Mixing options
  weight 0.1000
  weight.linear 0.1000
  weight.prime 0.1000
  history 4
%endblock SCF.Mixer.Broyden

DM_history_depth set to one: no extrapolation allowed by default for geometry relaxation
Size of DM history Fstack: 1
Total number of electrons:    48.000000
Total ionic charge:    48.000000

* ProcessorY, Blocksize:    2   4


* Orbital distribution balance (max,min):     6     4

 Kpoints in:          100 . Kpoints trimmed:           62

siesta: k-grid: Number of k-points =    62
siesta: k-grid: Cutoff (effective) =    11.356 Ang
siesta: k-grid: Supercell and displacements
siesta: k-grid:    5  -5   0      0.500
siesta: k-grid:    0  -5   5      0.000
siesta: k-grid:    0   0   4      0.000

diag: Algorithm                                     = D&C
diag: Parallel over k                               =   F
diag: Use parallel 2D distribution                  =   T
diag: Parallel block-size                           = 4
diag: Parallel distribution                         =     2 x     4
diag: Used triangular part                          = Lower
diag: Absolute tolerance                            =  0.100E-15
diag: Orthogonalization factor                      =  0.100E-05
diag: Memory factor                                 =  1.0000

superc: Internal auxiliary supercell:     5 x     5 x     5  =     125
superc: Number of atoms, orbitals, and projectors:   1250   4250  10000


ts: **************************************************************
ts: Save H and S matrices                           =    F
ts: Save DM and EDM matrices                        =    F
ts: Only save the overlap matrix S                  =    F
ts: **************************************************************

************************ Begin: TS CHECKS AND WARNINGS ************************
************************ End: TS CHECKS AND WARNINGS **************************


                     ====================================
                        Begin CG opt. move =      0
                     ====================================

outcoor: Atomic coordinates (fractional):                   
    0.00000000    0.00000000    0.00000000   1       1  Mg
    0.50000000    0.50000000    0.50000000   1       2  Mg
    0.25000000    0.25000000    0.25000000   2       3  C
   -0.25000000   -0.25000000   -0.25000000   2       4  C
    0.52740000   -0.02740000    0.25000000   3       5  O
    0.25000000    0.52740000   -0.02740000   3       6  O
   -0.02740000    0.25000000    0.52740000   3       7  O
   -0.52740000    0.02740000   -0.25000000   3       8  O
   -0.25000000   -0.52740000    0.02740000   3       9  O
    0.02740000   -0.25000000   -0.52740000   3      10  O

superc: Internal auxiliary supercell:     5 x     5 x     5  =     125
superc: Number of atoms, orbitals, and projectors:   1250   4250  10000

outcell: Unit cell vectors (Ang):
        5.677830    0.000000    0.000000
        3.786009    4.231299    0.000000
        3.636033    1.826925    3.959718

outcell: Cell vector modules (Ang)   :    5.677830    5.677830    5.677830
outcell: Cell angles (23,13,12) (deg):     48.1790     50.1790     48.1790
outcell: Cell volume (Ang**3)        :     95.1306
<dSpData1D:S at geom step 0
  <sparsity:sparsity for geom step 0
    nrows_g=34 nrows=6 sparsity=2.0415 nnzs=2360, refcount: 7>
  <dData1D:(new from dSpData1D) n=2360, refcount: 1>
refcount: 1>
new_DM -- step:     1
Initializing Density Matrix...

Attempting to read DM from file... Failed...
DM filled with atomic data:
<dSpData2D:DM initialized from atoms
  <sparsity:sparsity for geom step 0
    nrows_g=34 nrows=6 sparsity=2.0415 nnzs=2360, refcount: 8>
  <dData2D:DM n=2360 m=1, refcount: 1>
refcount: 1>
No. of atoms with KB's overlaping orbs in proc 0. Max # of overlaps:      89      85
New grid distribution:   1
           1       1:   16    1:    8    1:    4
           2       1:   16    1:    8    5:    8
           3       1:   16    1:    8    9:   12
           4       1:   16    1:    8   13:   16
           5       1:   16    9:   16    1:    4
           6       1:   16    9:   16    5:    8
           7       1:   16    9:   16    9:   12
           8       1:   16    9:   16   13:   16

InitMesh: MESH =    32 x    32 x    32 =       32768
InitMesh: (bp) =    16 x    16 x    16 =        4096
InitMesh: Mesh cutoff (required, used) =   100.000   113.739 Ry
ExtMesh (bp) on 0 =    76 x    68 x    64 =      330752
New grid distribution:   2
           1       9:   16    8:   16    1:    8
           2       8:   16    1:    7    1:    8
           3       9:   16    1:    9    9:   16
           4      10:   16   10:   16    9:   16
           5       1:    8    8:   16    1:    8
           6       1:    7    1:    7    1:    8
           7       1:    8    1:    9    9:   16
           8       1:    9   10:   16    9:   16
New grid distribution:   3
           1       1:    8    9:   16    9:   16
           2       9:   16    1:    8    1:    8
           3       9:   16    1:    8    9:   16
           4       9:   16    9:   16    1:    8
           5       1:    8    1:    8    9:   16
           6       1:    8    1:    8    1:    8
           7       9:   16    9:   16    9:   16
           8       1:    8    9:   16    1:    8
Setting up quadratic distribution...
ExtMesh (bp) on 0 =    68 x    69 x    68 =      319056
PhiOnMesh: Number of (b)points on node 0 =                  576
PhiOnMesh: nlist on node 0 =                11689

stepf: Fermi-Dirac step function

siesta: Program's energy decomposition (eV):
siesta: Ebs     =      -549.838617
siesta: Eions   =      5228.674091
siesta: Ena     =      1094.143791
siesta: Ekin    =      2362.190208
siesta: Enl     =      -391.868854
siesta: Eso     =         0.000000
siesta: Edftu   =         0.000000
siesta: DEna    =       -88.700524
siesta: DUscf   =        20.916525
siesta: DUext   =         0.000000
siesta: Exc     =      -717.889825
siesta: eta*DQ  =         0.000000
siesta: Emadel  =         0.000000
siesta: Emeta   =         0.000000
siesta: Emolmec =         0.000000
siesta: Ekinion =         0.000000
siesta: Eharris =     -2908.752040
siesta: Etot    =     -2949.882770
siesta: FreeEng =     -2949.882770

        iscf     Eharris(eV)        E_KS(eV)     FreeEng(eV)     dDmax    Ef(eV) dHmax(eV)
   scf:    1    -2908.752040    -2949.882770    -2949.882770  1.748550 -2.876143  4.626221
timer: Routine,Calls,Time,% = IterSCF        1       0.612  48.49
   scf:    2    -2955.817598    -2952.956787    -2952.956787  0.068915 -2.955912  3.659918
   scf:    3    -2959.087169    -2957.683220    -2957.683220  0.302184 -3.171263  0.931144
   scf:    4    -2957.691374    -2957.687327    -2957.687327  0.000894 -3.168153  0.914820
   scf:    5    -2957.791376    -2957.740893    -2957.740893  0.012198 -3.070037  0.675484
   scf:    6    -2957.844698    -2957.803105    -2957.803105  0.022511 -2.871171  0.116719
   scf:    7    -2957.806032    -2957.804784    -2957.804784  0.002538 -2.863513  0.063992
   scf:    8    -2957.805485    -2957.805205    -2957.805205  0.002051 -2.860821  0.014889
   scf:    9    -2957.805245    -2957.805225    -2957.805225  0.000116 -2.862195  0.013139
   scf:   10    -2957.805355    -2957.805302    -2957.805302  0.000573 -2.867594  0.008225
   scf:   11    -2957.805318    -2957.805312    -2957.805312  0.000421 -2.872117  0.004072
   scf:   12    -2957.805312    -2957.805312    -2957.805312  0.000032 -2.873039  0.002887
   scf:   13    -2957.805313    -2957.805312    -2957.805312  0.000039 -2.873735  0.002003
   scf:   14    -2957.805313    -2957.805313    -2957.805313  0.000027 -2.874317  0.001352
   scf:   15    -2957.805313    -2957.805313    -2957.805313  0.000020 -2.874719  0.000897

SCF Convergence by DM+H criterion
max |DM_out - DM_in|         :     0.0000201656
max |H_out - H_in|      (eV) :     0.0008970890
SCF cycle converged after 15 iterations

Using DM_out to compute the final energy and forces
No. of atoms with KB's overlaping orbs in proc 0. Max # of overlaps:      89      85

siesta: E_KS(eV) =            -2957.8053

siesta: E_KS - E_eggbox =     -2957.8053

siesta: Atomic forces (eV/Ang):
     1   -0.000000   -0.000000   -0.000000
     2   -0.000000    0.000000    0.000000
     3   -1.156769    1.035054    2.243321
     4    1.156769   -1.035054   -2.243321
     5    2.914507   -7.258847    0.542444
     6    0.090909    4.569669   -6.370896
     7   -1.882631    1.684523    3.651053
     8   -2.914507    7.258847   -0.542444
     9   -0.090909   -4.569669    6.370896
    10    1.882631   -1.684523   -3.651053
----------------------------------------
   Tot    0.000000    0.000000    0.000000
----------------------------------------
   Max    7.258847
   Res    3.163458    sqrt( Sum f_i^2 / 3N )
----------------------------------------
   Max    7.258847    constrained

Stress tensor Voigt[x,y,z,yz,xz,xy] (kbar):      118.43     -205.70     -124.71      127.09       41.25      140.56
(Free)E + p*V (eV/cell)    -2953.6097
Target enthalpy (eV/cell)    -2957.8053

siesta: Stress tensor (static) (eV/Ang**3):
         0.073916    0.087730    0.025748
         0.087730   -0.128389    0.079321
         0.025748    0.079321   -0.077837

siesta: Pressure (static):         70.66221339  kBar

siesta: Stress tensor (total) (eV/Ang**3):
         0.073916    0.087730    0.025748
         0.087730   -0.128389    0.079321
         0.025748    0.079321   -0.077837

siesta: Pressure (total):         70.66221339  kBar

cgvc: No target stress found, assuming hydrostatic MD.TargetPressure.
***Target stress set to zero for constant-volume calculation

cgvc: Target stress (kBar)
cgvc:         0.000       0.000       0.000
cgvc:         0.000       0.000       0.000
cgvc:         0.000       0.000       0.000
Volume before coercion:      95.1272

                     ====================================
                        Begin CG opt. move =      1
                     ====================================

outcoor: Atomic coordinates (fractional):                   
   -0.00000000   -0.00000000   -0.00000000   1       1  Mg
    0.50000000    0.50000000    0.50000000   1       2  Mg
    0.24798864    0.25000003    0.25201132   2       3  C
   -0.24798864   -0.25000003   -0.25201132   2       4  C
    0.53246766   -0.03342678    0.24984192   3       5  O
    0.25015807    0.53342672   -0.03246762   3       6  O
   -0.03067346    0.25000002    0.53067348   3       7  O
   -0.53246766    0.03342678   -0.24984192   3       8  O
   -0.25015807   -0.53342672    0.03246762   3       9  O
    0.03067346   -0.25000002   -0.53067348   3      10  O
 Kpoints in:           60 . Kpoints trimmed:           60

siesta: k-grid: Number of k-points =    60
siesta: k-grid: Cutoff (effective) =    11.306 Ang
siesta: k-grid: Supercell and displacements
siesta: k-grid:    5  -5   0      0.500
siesta: k-grid:    0  -5   5      0.000
siesta: k-grid:    4   0   0      0.000

superc: Internal auxiliary supercell:     5 x     5 x     5  =     125
superc: Number of atoms, orbitals, and projectors:   1250   4250  10000

outcell: Unit cell vectors (Ang):
        5.652725   -0.018713   -0.005492
        3.755324    4.232270   -0.016271
        3.610104    1.808948    3.955823

outcell: Cell vector modules (Ang)   :    5.652759    5.658165    5.652759
outcell: Cell angles (23,13,12) (deg):     48.6068     50.4388     48.6068
outcell: Cell volume (Ang**3)        :     95.1306
<dSpData1D:S at geom step 1
  <sparsity:sparsity for geom step 1
    nrows_g=34 nrows=6 sparsity=2.0571 nnzs=2378, refcount: 7>
  <dData1D:(new from dSpData1D) n=2378, refcount: 1>
refcount: 1>
new_DM -- step:     2
Re-using DM from previous geometries...
Number of DMs in history: 1
 DM extrapolation coefficients: 
1   1.00000
New DM after history re-use:
<dSpData2D:SpM extrapolated using coords
  <sparsity:sparsity for geom step 1
    nrows_g=34 nrows=6 sparsity=2.0571 nnzs=2378, refcount: 9>
  <dData2D:(temp array for extrapolation) n=2378 m=1, refcount: 1>
refcount: 1>
No. of atoms with KB's overlaping orbs in proc 0. Max # of overlaps:      92      85
New grid distribution:   1
           1       1:   15    1:    8    1:    4
           2       1:   15    1:    8    5:    8
           3       1:   15    1:    8    9:   12
           4       1:   15    1:    8   13:   15
           5       1:   15    9:   15    1:    4
           6       1:   15    9:   15    5:    8
           7       1:   15    9:   15    9:   12
           8       1:   15    9:   15   13:   15

InitMesh: MESH =    30 x    30 x    30 =       27000
InitMesh: (bp) =    15 x    15 x    15 =        3375
InitMesh: Mesh cutoff (required, used) =   100.000   101.217 Ry
ExtMesh (bp) on 0 =    71 x    64 x    60 =      272640
New grid distribution:   2
           1       8:   15    1:    7    1:    7
           2       1:    7    1:    7    1:    7
           3       8:   15    1:    8    8:   15
           4       1:    7    1:    8    8:   15
           5       1:    8    8:   15    1:    7
           6       9:   15    8:   15    1:    7
           7       1:    8    9:   15    8:   15
           8       9:   15    9:   15    8:   15
New grid distribution:   3
           1       1:    8    1:    8    1:    8
           2       9:   15    9:   15    1:    8
           3       1:    8    1:    8    9:   15
           4       9:   15    1:    8    9:   15
           5       1:    8    9:   15    1:    8
           6       9:   15    1:    8    1:    8
           7       1:    8    9:   15    9:   15
           8       9:   15    9:   15    9:   15
Setting up quadratic distribution...
ExtMesh (bp) on 0 =    64 x    63 x    63 =      254016
PhiOnMesh: Number of (b)points on node 0 =                  392
PhiOnMesh: nlist on node 0 =                 8209

        iscf     Eharris(eV)        E_KS(eV)     FreeEng(eV)     dDmax    Ef(eV) dHmax(eV)
   scf:    1    -2960.359426    -2958.580265    -2958.580265  0.065333 -3.436031  0.547762
   scf:    2    -2958.064057    -2958.462166    -2958.462166  0.068153 -3.217080  1.259075
   scf:    3    -2958.705383    -2958.639575    -2958.639575  0.042159 -3.358843  0.093268
   scf:    4    -2958.638314    -2958.640242    -2958.640242  0.006060 -3.332036  0.098012
   scf:    5    -2958.638034    -2958.639214    -2958.639214  0.001726 -3.330212  0.149116
   scf:    6    -2958.641613    -2958.641138    -2958.641138  0.005329 -3.328369  0.018929
   scf:    7    -2958.641276    -2958.641210    -2958.641210  0.000544 -3.323195  0.007929
   scf:    8    -2958.641260    -2958.641240    -2958.641240  0.000476 -3.320196  0.002882
   scf:    9    -2958.641241    -2958.641241    -2958.641241  0.000096 -3.320404  0.001445
   scf:   10    -2958.641241    -2958.641241    -2958.641241  0.000028 -3.320559  0.000985

SCF Convergence by DM+H criterion
max |DM_out - DM_in|         :     0.0000281076
max |H_out - H_in|      (eV) :     0.0009851341
SCF cycle converged after 10 iterations

Using DM_out to compute the final energy and forces
No. of atoms with KB's overlaping orbs in proc 0. Max # of overlaps:      92      85

siesta: E_KS(eV) =            -2958.6412

siesta: Atomic forces (eV/Ang):
     1    0.000000   -0.000000    0.000000
     2   -0.000000    0.000000    0.000000
     3   -0.333441    0.298357    0.646634
     4    0.333441   -0.298357   -0.646634
     5    1.698259   -4.640645    0.384877
     6    0.137222    2.998286   -3.944454
     7   -1.590141    1.422817    3.083816
     8   -1.698259    4.640645   -0.384877
     9   -0.137222   -2.998286    3.944454
    10    1.590141   -1.422817   -3.083816
----------------------------------------
   Tot   -0.000000   -0.000000   -0.000000
----------------------------------------
   Max    4.640645
   Res    2.062624    sqrt( Sum f_i^2 / 3N )
----------------------------------------
   Max    4.640645    constrained

Stress tensor Voigt[x,y,z,yz,xz,xy] (kbar):      144.28      -78.08      -35.88       79.70       37.20      101.06
(Free)E + p*V (eV/cell)    -2959.2415
Target enthalpy (eV/cell)    -2958.6412

siesta: Stress tensor (static) (eV/Ang**3):
         0.090053    0.063079    0.023216
         0.063079   -0.048731    0.049744
         0.023216    0.049744   -0.022394

siesta: Pressure (static):        -10.10891360  kBar

siesta: Stress tensor (total) (eV/Ang**3):
         0.090053    0.063079    0.023216
         0.063079   -0.048731    0.049744
         0.023216    0.049744   -0.022394

siesta: Pressure (total):        -10.10891360  kBar
Volume before coercion:      95.1072

                     ====================================
                        Begin CG opt. move =      2
                     ====================================

outcoor: Atomic coordinates (fractional):                   
   -0.00000000   -0.00000000   -0.00000000   1       1  Mg
    0.50000000    0.50000000    0.50000000   1       2  Mg
    0.24477047    0.25000007    0.25522944   2       3  C
   -0.24477047   -0.25000007   -0.25522944   2       4  C
    0.54057591   -0.04306962    0.24958899   3       5  O
    0.25041098    0.54306947   -0.04057582   3       6  O
   -0.03591101    0.25000005    0.53591106   3       7  O
   -0.54057591    0.04306962   -0.24958899   3       8  O
   -0.25041098   -0.54306947    0.04057582   3       9  O
    0.03591101   -0.25000005   -0.53591106   3      10  O
 Kpoints in:           60 . Kpoints trimmed:           60

siesta: k-grid: Number of k-points =    60
siesta: k-grid: Cutoff (effective) =    11.226 Ang
siesta: k-grid: Supercell and displacements
siesta: k-grid:    5  -5   0      0.500
siesta: k-grid:    0  -5   5      0.000
siesta: k-grid:    4   0   0      0.000

superc: Internal auxiliary supercell:     5 x     5 x     5  =     125
superc: Number of atoms, orbitals, and projectors:   1250   4250  10000

outcell: Unit cell vectors (Ang):
        5.612839   -0.048657   -0.014280
        3.706412    4.234038   -0.042307
        3.568798    1.780276    3.949790

outcell: Cell vector modules (Ang)   :    5.613068    5.627287    5.613069
outcell: Cell angles (23,13,12) (deg):     49.2984     50.8586     49.2984
outcell: Cell volume (Ang**3)        :     95.1306
<dSpData1D:S at geom step 2
  <sparsity:sparsity for geom step 2
    nrows_g=34 nrows=6 sparsity=2.0571 nnzs=2378, refcount: 7>
  <dData1D:(new from dSpData1D) n=2378, refcount: 1>
refcount: 1>
new_DM -- step:     3
Re-using DM from previous geometries...
Number of DMs in history: 1
 DM extrapolation coefficients: 
1   1.00000
New DM after history re-use:
<dSpData2D:SpM extrapolated using coords
  <sparsity:sparsity for geom step 2
    nrows_g=34 nrows=6 sparsity=2.0571 nnzs=2378, refcount: 9>
  <dData2D:(temp array for extrapolation) n=2378 m=1, refcount: 1>
refcount: 1>
No. of atoms with KB's overlaping orbs in proc 0. Max # of overlaps:      92      85
New grid distribution:   1
           1       1:   15    1:    8    1:    4
           2       1:   15    1:    8    5:    8
           3       1:   15    1:    8    9:   12
           4       1:   15    1:    8   13:   15
           5       1:   15    9:   15    1:    4
           6       1:   15    9:   15    5:    8
           7       1:   15    9:   15    9:   12
           8       1:   15    9:   15   13:   15

InitMesh: MESH =    30 x    30 x    30 =       27000
InitMesh: (bp) =    15 x    15 x    15 =        3375
InitMesh: Mesh cutoff (required, used) =   100.000   103.258 Ry
ExtMesh (bp) on 0 =    71 x    64 x    60 =      272640
New grid distribution:   2
           1       9:   15    8:   15    1:    8
           2       1:    7    1:    7    1:    8
           3       8:   15    1:    8    9:   15
           4       1:    7    1:    8    9:   15
           5       1:    8    8:   15    1:    8
           6       8:   15    1:    7    1:    8
           7       1:    8    9:   15    9:   15
           8       9:   15    9:   15    9:   15
New grid distribution:   3
           1       1:    8    1:    8    1:    8
           2       9:   15    9:   15    1:    8
           3       1:    8    1:    8    9:   15
           4       9:   15    1:    8    9:   15
           5       1:    8    9:   15    1:    8
           6       9:   15    1:    8    1:    8
           7       1:    8    9:   15    9:   15
           8       9:   15    9:   15    9:   15
Setting up quadratic distribution...
ExtMesh (bp) on 0 =    63 x    64 x    64 =      258048
PhiOnMesh: Number of (b)points on node 0 =                  448
PhiOnMesh: nlist on node 0 =                 9265

        iscf     Eharris(eV)        E_KS(eV)     FreeEng(eV)     dDmax    Ef(eV) dHmax(eV)
   scf:    1    -2961.526561    -2959.247860    -2959.247860  0.108313 -3.799650  0.985491
   scf:    2    -2957.462138    -2958.825777    -2958.825777  0.119922 -3.612010  2.307017
   scf:    3    -2959.656674    -2959.428938    -2959.428938  0.075684 -3.723803  0.192946
   scf:    4    -2959.364913    -2959.411603    -2959.411603  0.024152 -3.673328  0.517085
   scf:    5    -2959.424235    -2959.418252    -2959.418252  0.003333 -3.664263  0.439537
   scf:    6    -2959.440986    -2959.433959    -2959.433959  0.013147 -3.671021  0.061086
   scf:    7    -2959.434434    -2959.434324    -2959.434324  0.002040 -3.668439  0.002315
   scf:    8    -2959.434324    -2959.434324    -2959.434324  0.000018 -3.668592  0.001961
   scf:    9    -2959.434324    -2959.434324    -2959.434324  0.000015 -3.668832  0.001689
   scf:   10    -2959.434324    -2959.434324    -2959.434324  0.000013 -3.669055  0.001482
   scf:   11    -2959.434324    -2959.434324    -2959.434324  0.000013 -3.669286  0.001381
   scf:   12    -2959.434324    -2959.434324    -2959.434324  0.000011 -3.669488  0.001260
   scf:   13    -2959.434325    -2959.434324    -2959.434324  0.000009 -3.669648  0.001130
   scf:   14    -2959.434325    -2959.434324    -2959.434324  0.000007 -3.669774  0.001003
   scf:   15    -2959.434325    -2959.434325    -2959.434325  0.000005 -3.669873  0.000885

SCF Convergence by DM+H criterion
max |DM_out - DM_in|         :     0.0000053550
max |H_out - H_in|      (eV) :     0.0008845405
SCF cycle converged after 15 iterations

Using DM_out to compute the final energy and forces
No. of atoms with KB's overlaping orbs in proc 0. Max # of overlaps:      92      85

siesta: E_KS(eV) =            -2959.4343

siesta: Atomic forces (eV/Ang):
     1   -0.000000    0.000000   -0.000000
     2    0.000000    0.000000    0.000000
     3    0.636861   -0.569849   -1.235089
     4   -0.636861    0.569849    1.235089
     5    0.298186   -1.526369    0.187651
     6    0.169297    1.108048   -1.094228
     7   -1.016623    0.909662    1.971574
     8   -0.298186    1.526369   -0.187651
     9   -0.169297   -1.108048    1.094228
    10    1.016623   -0.909662   -1.971574
----------------------------------------
   Tot   -0.000000   -0.000000   -0.000000
----------------------------------------
   Max    1.971574
   Res    0.927778    sqrt( Sum f_i^2 / 3N )
----------------------------------------
   Max    1.971574    constrained

Stress tensor Voigt[x,y,z,yz,xz,xy] (kbar):      150.69       78.11       81.15       21.58       17.72       38.39
(Free)E + p*V (eV/cell)    -2965.5686
Target enthalpy (eV/cell)    -2959.4343

siesta: Stress tensor (static) (eV/Ang**3):
         0.094052    0.023964    0.011060
         0.023963    0.048750    0.013470
         0.011060    0.013470    0.050647

siesta: Pressure (static):       -103.31445706  kBar

siesta: Stress tensor (total) (eV/Ang**3):
         0.094052    0.023964    0.011060
         0.023963    0.048750    0.013470
         0.011060    0.013470    0.050647

siesta: Pressure (total):       -103.31445706  kBar
Volume before coercion:      95.0384

                     ====================================
                        Begin CG opt. move =      3
                     ====================================

outcoor: Atomic coordinates (fractional):                   
   -0.00000000   -0.00000000   -0.00000000   1       1  Mg
    0.50000000    0.50000000    0.50000000   1       2  Mg
    0.23962140    0.25000013    0.26037843   2       3  C
   -0.23962140   -0.25000013   -0.26037843   2       4  C
    0.55354912   -0.05849816    0.24918430   3       5  O
    0.25081564    0.55849787   -0.05354894   3       6  O
   -0.04429107    0.25000010    0.54429118   3       7  O
   -0.55354912    0.05849816   -0.24918430   3       8  O
   -0.25081564   -0.55849787    0.05354894   3       9  O
    0.04429107   -0.25000010   -0.54429118   3      10  O
 Kpoints in:           60 . Kpoints trimmed:           60

siesta: k-grid: Number of k-points =    60
siesta: k-grid: Cutoff (effective) =    11.101 Ang
siesta: k-grid: Supercell and displacements
siesta: k-grid:    5  -5   0      0.500
siesta: k-grid:    0  -5   5      0.000
siesta: k-grid:    4   0   0      0.000

superc: Internal auxiliary supercell:     5 x     5 x     5  =     125
superc: Number of atoms, orbitals, and projectors:   1250   4250  10000

outcell: Unit cell vectors (Ang):
        5.549729   -0.096588   -0.028347
        3.628610    4.237416   -0.083984
        3.503150    1.734615    3.940646

outcell: Cell vector modules (Ang)   :    5.550642    5.579387    5.550643
outcell: Cell angles (23,13,12) (deg):     50.4230     51.5408     50.4230
outcell: Cell volume (Ang**3)        :     95.1306
<dSpData1D:S at geom step 3
  <sparsity:sparsity for geom step 3
    nrows_g=34 nrows=6 sparsity=2.1194 nnzs=2450, refcount: 7>
  <dData1D:(new from dSpData1D) n=2450, refcount: 1>
refcount: 1>
new_DM -- step:     4
Re-using DM from previous geometries...
Number of DMs in history: 1
 DM extrapolation coefficients: 
1   1.00000
New DM after history re-use:
<dSpData2D:SpM extrapolated using coords
  <sparsity:sparsity for geom step 3
    nrows_g=34 nrows=6 sparsity=2.1194 nnzs=2450, refcount: 9>
  <dData2D:(temp array for extrapolation) n=2450 m=1, refcount: 1>
refcount: 1>
Note: For starting DM, Qtot, Tr[D*S] =         48.00000000         47.90045556
No. of atoms with KB's overlaping orbs in proc 0. Max # of overlaps:      94      87
New grid distribution:   1
           1       1:   15    1:    8    1:    4
           2       1:   15    1:    8    5:    8
           3       1:   15    1:    8    9:   12
           4       1:   15    1:    8   13:   15
           5       1:   15    9:   15    1:    4
           6       1:   15    9:   15    5:    8
           7       1:   15    9:   15    9:   12
           8       1:   15    9:   15   13:   15

InitMesh: MESH =    30 x    30 x    30 =       27000
InitMesh: (bp) =    15 x    15 x    15 =        3375
InitMesh: Mesh cutoff (required, used) =   100.000   106.628 Ry
ExtMesh (bp) on 0 =    71 x    64 x    60 =      272640
New grid distribution:   2
           1       9:   15    8:   15    1:    8
           2       1:    7    1:    7    1:    8
           3       8:   15    1:    8    9:   15
           4       1:    7    1:    8    9:   15
           5       1:    8    8:   15    1:    8
           6       8:   15    1:    7    1:    8
           7       1:    8    9:   15    9:   15
           8       9:   15    9:   15    9:   15
New grid distribution:   3
           1       1:    8    1:    8    1:    8
           2       9:   15    9:   15    1:    8
           3       1:    8    1:    8    9:   15
           4       9:   15    1:    8    9:   15
           5       1:    8    9:   15    1:    8
           6       9:   15    1:    8    1:    8
           7       1:    8    9:   15    9:   15
           8       9:   15    9:   15    9:   15
Setting up quadratic distribution...
ExtMesh (bp) on 0 =    63 x    64 x    64 =      258048
PhiOnMesh: Number of (b)points on node 0 =                  448
PhiOnMesh: nlist on node 0 =                 9271

        iscf     Eharris(eV)        E_KS(eV)     FreeEng(eV)     dDmax    Ef(eV) dHmax(eV)
   scf:    1    -2960.557368    -2958.595361    -2958.595361  0.180105 -4.150544  1.849865
   scf:    2    -2951.603785    -2956.901925    -2956.901925  0.232166 -4.210032  4.287242
   scf:    3    -2960.142702    -2959.221174    -2959.221174  0.145495 -4.152927  0.468745
   scf:    4    -2959.187848    -2959.205553    -2959.205553  0.006436 -4.163181  0.652102
   scf:    5    -2959.083291    -2959.200155    -2959.200155  0.047334 -4.043515  0.722656
   scf:    6    -2959.254961    -2959.242918    -2959.242918  0.024962 -4.087922  0.063130
   scf:    7    -2959.244547    -2959.243889    -2959.243889  0.002800 -4.075351  0.030586
   scf:    8    -2959.243981    -2959.243968    -2959.243968  0.000942 -4.076862  0.004048
   scf:    9    -2959.243969    -2959.243969    -2959.243969  0.000031 -4.077504  0.002821
   scf:   10    -2959.243970    -2959.243969    -2959.243969  0.000031 -4.078126  0.002331
   scf:   11    -2959.243970    -2959.243970    -2959.243970  0.000034 -4.078821  0.001680
   scf:   12    -2959.243970    -2959.243970    -2959.243970  0.000031 -4.079459  0.001162
   scf:   13    -2959.243970    -2959.243970    -2959.243970  0.000020 -4.079866  0.000870

SCF Convergence by DM+H criterion
max |DM_out - DM_in|         :     0.0000204385
max |H_out - H_in|      (eV) :     0.0008703383
SCF cycle converged after 13 iterations

Using DM_out to compute the final energy and forces
No. of atoms with KB's overlaping orbs in proc 0. Max # of overlaps:      94      87

siesta: E_KS(eV) =            -2959.2440

siesta: Atomic forces (eV/Ang):
     1   -0.000000    0.000000    0.000000
     2    0.000000    0.000000   -0.000000
     3    1.528889   -1.368017   -2.965015
     4   -1.528889    1.368017    2.965015
     5   -1.205403    1.986548    0.068889
     6    0.084676   -0.983791    2.104639
     7   -0.275771    0.246782    0.534801
     8    1.205403   -1.986548   -0.068889
     9   -0.084676    0.983791   -2.104639
    10    0.275771   -0.246782   -0.534801
----------------------------------------
   Tot   -0.000000    0.000000   -0.000000
----------------------------------------
   Max    2.965015
   Res    1.271007    sqrt( Sum f_i^2 / 3N )
----------------------------------------
   Max    2.965015    constrained

Stress tensor Voigt[x,y,z,yz,xz,xy] (kbar):      152.12      272.57      234.15      -47.08      -14.58      -44.22
(Free)E + p*V (eV/cell)    -2972.2837
Target enthalpy (eV/cell)    -2959.2440

siesta: Stress tensor (static) (eV/Ang**3):
         0.094947   -0.027598   -0.009097
        -0.027598    0.170123   -0.029382
        -0.009097   -0.029382    0.146145

siesta: Pressure (static):       -219.61528109  kBar

siesta: Stress tensor (total) (eV/Ang**3):
         0.094947   -0.027598   -0.009097
        -0.027598    0.170123   -0.029382
        -0.009097   -0.029382    0.146145

siesta: Pressure (total):       -219.61528109  kBar
Volume before coercion:      95.0837

                     ====================================
                        Begin CG opt. move =      4
                     ====================================

outcoor: Atomic coordinates (fractional):                   
   -0.00000000   -0.00000000   -0.00000000   1       1  Mg
    0.50000000    0.50000000    0.50000000   1       2  Mg
    0.24259657    0.25000010    0.25740332   2       3  C
   -0.24259657   -0.25000010   -0.25740332   2       4  C
    0.54605312   -0.04958345    0.24941813   3       5  O
    0.25058183    0.54958325   -0.04605299   3       6  O
   -0.03944902    0.25000007    0.53944910   3       7  O
   -0.54605312    0.04958345   -0.24941813   3       8  O
   -0.25058183   -0.54958325    0.04605299   3       9  O
    0.03944902   -0.25000007   -0.53944910   3      10  O
 Kpoints in:           60 . Kpoints trimmed:           60

siesta: k-grid: Number of k-points =    60
siesta: k-grid: Cutoff (effective) =    11.173 Ang
siesta: k-grid: Supercell and displacements
siesta: k-grid:    5  -5   0      0.500
siesta: k-grid:    0  -5   5      0.000
siesta: k-grid:    4   0   0      0.000

superc: Internal auxiliary supercell:     5 x     5 x     5  =     125
superc: Number of atoms, orbitals, and projectors:   1250   4250  10000

outcell: Unit cell vectors (Ang):
        5.586089   -0.068889   -0.020218
        3.673498    4.235381   -0.059899
        3.541017    1.760967    3.945853

outcell: Cell vector modules (Ang)   :    5.586551    5.606838    5.586552
outcell: Cell angles (23,13,12) (deg):     49.7705     51.1450     49.7705
outcell: Cell volume (Ang**3)        :     95.1306
<dSpData1D:S at geom step 4
  <sparsity:sparsity for geom step 4
    nrows_g=34 nrows=6 sparsity=2.0848 nnzs=2410, refcount: 7>
  <dData1D:(new from dSpData1D) n=2410, refcount: 1>
refcount: 1>
new_DM -- step:     5
Re-using DM from previous geometries...
Number of DMs in history: 1
 DM extrapolation coefficients: 
1   1.00000
New DM after history re-use:
<dSpData2D:SpM extrapolated using coords
  <sparsity:sparsity for geom step 4
    nrows_g=34 nrows=6 sparsity=2.0848 nnzs=2410, refcount: 9>
  <dData2D:(temp array for extrapolation) n=2410 m=1, refcount: 1>
refcount: 1>
Note: For starting DM, Qtot, Tr[D*S] =         48.00000000         48.06491187
No. of atoms with KB's overlaping orbs in proc 0. Max # of overlaps:      92      85
New grid distribution:   1
           1       1:   15    1:    8    1:    4
           2       1:   15    1:    8    5:    8
           3       1:   15    1:    8    9:   12
           4       1:   15    1:    8   13:   15
           5       1:   15    9:   15    1:    4
           6       1:   15    9:   15    5:    8
           7       1:   15    9:   15    9:   12
           8       1:   15    9:   15   13:   15

InitMesh: MESH =    30 x    30 x    30 =       27000
InitMesh: (bp) =    15 x    15 x    15 =        3375
InitMesh: Mesh cutoff (required, used) =   100.000   104.665 Ry
ExtMesh (bp) on 0 =    71 x    64 x    60 =      272640
New grid distribution:   2
           1       9:   15    8:   15    1:    8
           2       1:    7    1:    7    1:    8
           3       8:   15    1:    8    9:   15
           4       1:    7    1:    8    9:   15
           5       1:    8    8:   15    1:    8
           6       8:   15    1:    7    1:    8
           7       1:    8    9:   15    9:   15
           8       9:   15    9:   15    9:   15
New grid distribution:   3
           1       1:    8    1:    8    1:    8
           2       9:   15    9:   15    1:    8
           3       1:    8    1:    8    9:   15
           4       9:   15    1:    8    9:   15
           5       1:    8    9:   15    1:    8
           6       9:   15    1:    8    1:    8
           7       1:    8    9:   15    9:   15
           8       9:   15    9:   15    9:   15
Setting up quadratic distribution...
ExtMesh (bp) on 0 =    63 x    64 x    64 =      258048
PhiOnMesh: Number of (b)points on node 0 =                  448
PhiOnMesh: nlist on node 0 =                 9260

        iscf     Eharris(eV)        E_KS(eV)     FreeEng(eV)     dDmax    Ef(eV) dHmax(eV)
   scf:    1    -2956.854008    -2959.377853    -2959.377853  0.098313 -3.768105  0.944674
   scf:    2    -2957.111763    -2958.785317    -2958.785317  0.131927 -3.859940  2.577918
   scf:    3    -2959.741167    -2959.538634    -2959.538634  0.096425 -3.809172  0.147880
   scf:    4    -2959.538641    -2959.540021    -2959.540021  0.007674 -3.830992  0.133092
   scf:    5    -2959.536822    -2959.540642    -2959.540642  0.009618 -3.865325  0.150155
   scf:    6    -2959.543283    -2959.542303    -2959.542303  0.003676 -3.862181  0.043373
   scf:    7    -2959.542471    -2959.542441    -2959.542441  0.001443 -3.860500  0.001773
   scf:    8    -2959.542441    -2959.542441    -2959.542441  0.000016 -3.860274  0.001555
   scf:    9    -2959.542441    -2959.542441    -2959.542441  0.000015 -3.860016  0.001309
   scf:   10    -2959.542441    -2959.542441    -2959.542441  0.000012 -3.859808  0.001123
   scf:   11    -2959.542441    -2959.542441    -2959.542441  0.000011 -3.859621  0.001104
   scf:   12    -2959.542441    -2959.542441    -2959.542441  0.000009 -3.859469  0.001045
   scf:   13    -2959.542441    -2959.542441    -2959.542441  0.000007 -3.859352  0.000967

SCF Convergence by DM+H criterion
max |DM_out - DM_in|         :     0.0000067110
max |H_out - H_in|      (eV) :     0.0009673340
SCF cycle converged after 13 iterations

Using DM_out to compute the final energy and forces
No. of atoms with KB's overlaping orbs in proc 0. Max # of overlaps:      92      85

siesta: E_KS(eV) =            -2959.5424

siesta: Atomic forces (eV/Ang):
     1    0.000000   -0.000000   -0.000000
     2   -0.000000    0.000000   -0.000000
     3    1.101916   -0.985970   -2.136979
     4   -1.101916    0.985970    2.136979
     5   -0.474333    0.217874    0.137931
     6    0.137452    0.083526    0.515436
     7   -0.721776    0.645848    1.399766
     8    0.474333   -0.217874   -0.137931
     9   -0.137452   -0.083526   -0.515436
    10    0.721776   -0.645848   -1.399766
----------------------------------------
   Tot    0.000000    0.000000   -0.000000
----------------------------------------
   Max    2.136979
   Res    0.825974    sqrt( Sum f_i^2 / 3N )
----------------------------------------
   Max    2.136979    constrained

Stress tensor Voigt[x,y,z,yz,xz,xy] (kbar):      153.11      168.78      152.23      -11.63        4.84       -0.72
(Free)E + p*V (eV/cell)    -2968.9263
Target enthalpy (eV/cell)    -2959.5424

siesta: Stress tensor (static) (eV/Ang**3):
         0.095563   -0.000451    0.003018
        -0.000450    0.105346   -0.007261
         0.003018   -0.007261    0.095015

siesta: Pressure (static):       -158.04272591  kBar

siesta: Stress tensor (total) (eV/Ang**3):
         0.095563   -0.000451    0.003018
        -0.000450    0.105346   -0.007261
         0.003018   -0.007261    0.095015

siesta: Pressure (total):       -158.04272591  kBar

cgvc: Finished line minimization    1.  Mean atomic displacement =    0.1869
Volume before coercion:      95.0630

                     ====================================
                        Begin CG opt. move =      5
                     ====================================

outcoor: Atomic coordinates (fractional):                   
    0.00000000   -0.00000000   -0.00000000   1       1  Mg
    0.50000000    0.50000000    0.50000000   1       2  Mg
    0.26123653    0.24999989    0.23876320   2       3  C
   -0.26123653   -0.24999989   -0.23876320   2       4  C
    0.54273815   -0.05894832    0.24674415   3       5  O
    0.25325562    0.55894763   -0.04273741   3       6  O
   -0.05669426    0.25000050    0.55669457   3       7  O
   -0.54273815    0.05894832   -0.24674415   3       8  O
   -0.25325562   -0.55894763    0.04273741   3       9  O
    0.05669426   -0.25000050   -0.55669457   3      10  O
 Kpoints in:           60 . Kpoints trimmed:           60

siesta: k-grid: Number of k-points =    60
siesta: k-grid: Cutoff (effective) =    11.134 Ang
siesta: k-grid: Supercell and displacements
siesta: k-grid:    5  -5   0      0.500
siesta: k-grid:    0  -5   5      0.000
siesta: k-grid:    4   0   0      0.000

superc: Internal auxiliary supercell:     5 x     5 x     5  =     125
superc: Number of atoms, orbitals, and projectors:   1250   4250  10000

outcell: Unit cell vectors (Ang):
        5.566012   -0.088380   -0.033239
        3.645584    4.225815   -0.069879
        3.512806    1.748752    3.948610

outcell: Cell vector modules (Ang)   :    5.566813    5.581459    5.566818
outcell: Cell angles (23,13,12) (deg):     50.1246     51.5587     50.1246
outcell: Cell volume (Ang**3)        :     95.1306
<dSpData1D:S at geom step 5
  <sparsity:sparsity for geom step 5
    nrows_g=34 nrows=6 sparsity=2.0640 nnzs=2386, refcount: 7>
  <dData1D:(new from dSpData1D) n=2386, refcount: 1>
refcount: 1>
new_DM -- step:     6
Re-using DM from previous geometries...
Number of DMs in history: 1
 DM extrapolation coefficients: 
1   1.00000
New DM after history re-use:
<dSpData2D:SpM extrapolated using coords
  <sparsity:sparsity for geom step 5
    nrows_g=34 nrows=6 sparsity=2.0640 nnzs=2386, refcount: 9>
  <dData2D:(temp array for extrapolation) n=2386 m=1, refcount: 1>
refcount: 1>
Note: For starting DM, Qtot, Tr[D*S] =         48.00000000         47.89532255
No. of atoms with KB's overlaping orbs in proc 0. Max # of overlaps:      91      85
New grid distribution:   1
           1       1:   15    1:    8    1:    4
           2       1:   15    1:    8    5:    8
           3       1:   15    1:    8    9:   12
           4       1:   15    1:    8   13:   15
           5       1:   15    9:   15    1:    4
           6       1:   15    9:   15    5:    8
           7       1:   15    9:   15    9:   12
           8       1:   15    9:   15   13:   15

InitMesh: MESH =    30 x    30 x    30 =       27000
InitMesh: (bp) =    15 x    15 x    15 =        3375
InitMesh: Mesh cutoff (required, used) =   100.000   105.944 Ry
ExtMesh (bp) on 0 =    71 x    64 x    60 =      272640
New grid distribution:   2
           1       9:   15    8:   15    1:    8
           2       1:    7    1:    7    1:    8
           3       8:   15    1:    8    9:   15
           4       1:    7    1:    8    9:   15
           5       1:    8    8:   15    1:    8
           6       8:   15    1:    7    1:    8
           7       1:    8    9:   15    9:   15
           8       9:   15    9:   15    9:   15
New grid distribution:   3
           1       1:    8    1:    8    1:    8
           2       9:   15    9:   15    1:    8
           3       1:    8    1:    8    9:   15
           4       9:   15    1:    8    9:   15
           5       1:    8    9:   15    1:    8
           6       9:   15    1:    8    1:    8
           7       1:    8    9:   15    9:   15
           8       9:   15    9:   15    9:   15
Setting up quadratic distribution...
ExtMesh (bp) on 0 =    63 x    64 x    64 =      258048
PhiOnMesh: Number of (b)points on node 0 =                  448
PhiOnMesh: nlist on node 0 =                 9276

        iscf     Eharris(eV)        E_KS(eV)     FreeEng(eV)     dDmax    Ef(eV) dHmax(eV)
   scf:    1    -2955.470379    -2957.505785    -2957.505785  0.126856 -4.155705  3.508758
   scf:    2    -2900.705158    -2940.623181    -2940.623181  0.574502 -1.913338 13.744589
   scf:    3    -2961.969589    -2959.028187    -2959.028187  0.485697 -3.106526  0.521582
   scf:    4    -2959.057397    -2959.052216    -2959.052216  0.014414 -3.112883  0.380160
   scf:    5    -2959.090712    -2959.073951    -2959.073951  0.021006 -3.091248  0.037564
   scf:    6    -2959.074332    -2959.074259    -2959.074259  0.001490 -3.091220  0.016899
   scf:    7    -2959.074301    -2959.074295    -2959.074295  0.000728 -3.096327  0.007294
   scf:    8    -2959.074301    -2959.074298    -2959.074298  0.000095 -3.097315  0.005985
   scf:    9    -2959.074304    -2959.074301    -2959.074301  0.000067 -3.098430  0.003767
   scf:   10    -2959.074304    -2959.074303    -2959.074303  0.000068 -3.099606  0.001702
   scf:   11    -2959.074304    -2959.074303    -2959.074303  0.000032 -3.100076  0.000680

SCF Convergence by DM+H criterion
max |DM_out - DM_in|         :     0.0000321345
max |H_out - H_in|      (eV) :     0.0006797423
SCF cycle converged after 11 iterations

Using DM_out to compute the final energy and forces
No. of atoms with KB's overlaping orbs in proc 0. Max # of overlaps:      91      85

siesta: E_KS(eV) =            -2959.0743

siesta: Atomic forces (eV/Ang):
     1    0.000000   -0.000000    0.000000
     2   -0.000000    0.000000    0.000000
     3   -1.521579    1.361460    2.950896
     4    1.521579   -1.361460   -2.950896
     5    0.633027    0.804470   -0.270761
     6   -0.475365   -0.945520   -0.034896
     7    1.353894   -1.211381   -2.625612
     8   -0.633027   -0.804470    0.270761
     9    0.475365    0.945520    0.034896
    10   -1.353894    1.211381    2.625612
----------------------------------------
   Tot   -0.000000   -0.000000   -0.000000
----------------------------------------
   Max    2.950896
   Res    1.299058    sqrt( Sum f_i^2 / 3N )
----------------------------------------
   Max    2.950896    constrained

Stress tensor Voigt[x,y,z,yz,xz,xy] (kbar):      156.10      182.60      280.91       46.94      -71.81      -49.44
(Free)E + p*V (eV/cell)    -2971.3376
Target enthalpy (eV/cell)    -2959.0743

siesta: Stress tensor (static) (eV/Ang**3):
         0.097430   -0.030859   -0.044818
        -0.030858    0.113970    0.029299
        -0.044819    0.029299    0.175330

siesta: Pressure (static):       -206.53902975  kBar

siesta: Stress tensor (total) (eV/Ang**3):
         0.097430   -0.030859   -0.044818
        -0.030858    0.113970    0.029299
        -0.044819    0.029299    0.175330

siesta: Pressure (total):       -206.53902975  kBar
Volume before coercion:      95.0770

                     ====================================
                        Begin CG opt. move =      6
                     ====================================

outcoor: Atomic coordinates (fractional):                   
    0.00000000   -0.00000000   -0.00000000   1       1  Mg
    0.50000000    0.50000000    0.50000000   1       2  Mg
    0.24917968    0.25000002    0.25082015   2       3  C
   -0.24917968   -0.25000002   -0.25082015   2       4  C
    0.54488236   -0.05289086    0.24847376   3       5  O
    0.25152614    0.55289048   -0.04488202   3       6  O
   -0.04553955    0.25000022    0.54553971   3       7  O
   -0.54488236    0.05289086   -0.24847376   3       8  O
   -0.25152614   -0.55289048    0.04488202   3       9  O
    0.04553955   -0.25000022   -0.54553971   3      10  O
 Kpoints in:           60 . Kpoints trimmed:           60

siesta: k-grid: Number of k-points =    60
siesta: k-grid: Cutoff (effective) =    11.159 Ang
siesta: k-grid: Supercell and displacements
siesta: k-grid:    5  -5   0      0.500
siesta: k-grid:    0  -5   5      0.000
siesta: k-grid:    4   0   0      0.000

superc: Internal auxiliary supercell:     5 x     5 x     5  =     125
superc: Number of atoms, orbitals, and projectors:   1250   4250  10000

outcell: Unit cell vectors (Ang):
        5.578987   -0.075772   -0.024817
        3.663632    4.231994   -0.063423
        3.531046    1.756649    3.946818

outcell: Cell vector modules (Ang)   :    5.579556    5.597856    5.579559
outcell: Cell angles (23,13,12) (deg):     49.8952     51.2908     49.8952
outcell: Cell volume (Ang**3)        :     95.1306
<dSpData1D:S at geom step 6
  <sparsity:sparsity for geom step 6
    nrows_g=34 nrows=6 sparsity=2.0917 nnzs=2418, refcount: 7>
  <dData1D:(new from dSpData1D) n=2418, refcount: 1>
refcount: 1>
new_DM -- step:     7
Re-using DM from previous geometries...
Number of DMs in history: 1
 DM extrapolation coefficients: 
1   1.00000
New DM after history re-use:
<dSpData2D:SpM extrapolated using coords
  <sparsity:sparsity for geom step 6
    nrows_g=34 nrows=6 sparsity=2.0917 nnzs=2418, refcount: 9>
  <dData2D:(temp array for extrapolation) n=2418 m=1, refcount: 1>
refcount: 1>
No. of atoms with KB's overlaping orbs in proc 0. Max # of overlaps:      94      85
New grid distribution:   1
           1       1:   15    1:    8    1:    4
           2       1:   15    1:    8    5:    8
           3       1:   15    1:    8    9:   12
           4       1:   15    1:    8   13:   15
           5       1:   15    9:   15    1:    4
           6       1:   15    9:   15    5:    8
           7       1:   15    9:   15    9:   12
           8       1:   15    9:   15   13:   15

InitMesh: MESH =    30 x    30 x    30 =       27000
InitMesh: (bp) =    15 x    15 x    15 =        3375
InitMesh: Mesh cutoff (required, used) =   100.000   105.115 Ry
ExtMesh (bp) on 0 =    71 x    64 x    60 =      272640
New grid distribution:   2
           1       9:   15    8:   15    1:    8
           2       1:    7    1:    7    1:    8
           3       8:   15    1:    8    9:   15
           4       1:    7    1:    8    9:   15
           5       1:    8    8:   15    1:    8
           6       8:   15    1:    7    1:    8
           7       1:    8    9:   15    9:   15
           8       9:   15    9:   15    9:   15
New grid distribution:   3
           1       1:    8    1:    8    1:    8
           2       9:   15    9:   15    1:    8
           3       1:    8    1:    8    9:   15
           4       9:   15    1:    8    9:   15
           5       1:    8    9:   15    1:    8
           6       9:   15    1:    8    1:    8
           7       1:    8    9:   15    9:   15
           8       9:   15    9:   15    9:   15
Setting up quadratic distribution...
ExtMesh (bp) on 0 =    63 x    64 x    64 =      258048
PhiOnMesh: Number of (b)points on node 0 =                  448
PhiOnMesh: nlist on node 0 =                 9251

        iscf     Eharris(eV)        E_KS(eV)     FreeEng(eV)     dDmax    Ef(eV) dHmax(eV)
   scf:    1    -2956.182881    -2959.012143    -2959.012143  0.088776 -3.135681  2.490808
   scf:    2    -2944.176516    -2954.868141    -2954.868141  0.280084 -3.248351  6.683634
   scf:    3    -2961.046812    -2959.631785    -2959.631785  0.189880 -4.303341  0.335648
   scf:    4    -2959.636618    -2959.634247    -2959.634247  0.001322 -4.305115  0.326986
   scf:    5    -2959.633140    -2959.645713    -2959.645713  0.019551 -4.330334  0.248676
   scf:    6    -2959.654027    -2959.651561    -2959.651561  0.007907 -4.328368  0.054316
   scf:    7    -2959.653451    -2959.652667    -2959.652667  0.002689 -4.330482  0.014352
   scf:    8    -2959.652743    -2959.652722    -2959.652722  0.000939 -4.330566  0.002978
   scf:    9    -2959.652723    -2959.652722    -2959.652722  0.000021 -4.330440  0.002820
   scf:   10    -2959.652723    -2959.652723    -2959.652723  0.000020 -4.330309  0.002683
   scf:   11    -2959.652723    -2959.652723    -2959.652723  0.000020 -4.330201  0.002470
   scf:   12    -2959.652723    -2959.652723    -2959.652723  0.000018 -4.330102  0.002156
   scf:   13    -2959.652723    -2959.652723    -2959.652723  0.000013 -4.330023  0.001837
   scf:   14    -2959.652723    -2959.652723    -2959.652723  0.000009 -4.329959  0.001534
   scf:   15    -2959.652723    -2959.652723    -2959.652723  0.000008 -4.329910  0.001272
   scf:   16    -2959.652723    -2959.652723    -2959.652723  0.000006 -4.329874  0.001061
   scf:   17    -2959.652723    -2959.652723    -2959.652723  0.000005 -4.329847  0.000896

SCF Convergence by DM+H criterion
max |DM_out - DM_in|         :     0.0000046137
max |H_out - H_in|      (eV) :     0.0008962194
SCF cycle converged after 17 iterations

Using DM_out to compute the final energy and forces
No. of atoms with KB's overlaping orbs in proc 0. Max # of overlaps:      94      85

siesta: E_KS(eV) =            -2959.6527

siesta: Atomic forces (eV/Ang):
     1   -0.000000    0.000000   -0.000000
     2    0.000000   -0.000000   -0.000000
     3   -0.112256    0.100437    0.217720
     4    0.112256   -0.100437   -0.217720
     5   -0.361223    0.238333   -0.064812
     6    0.199849   -0.093951    0.377837
     7    0.321949   -0.288036   -0.624347
     8    0.361223   -0.238333    0.064812
     9   -0.199849    0.093952   -0.377836
    10   -0.321949    0.288036    0.624347
----------------------------------------
   Tot   -0.000000    0.000000    0.000000
----------------------------------------
   Max    0.624347
   Res    0.261983    sqrt( Sum f_i^2 / 3N )
----------------------------------------
   Max    0.624347    constrained

Stress tensor Voigt[x,y,z,yz,xz,xy] (kbar):      157.79      173.96      216.15       20.22      -33.50      -22.35
(Free)E + p*V (eV/cell)    -2970.4967
Target enthalpy (eV/cell)    -2959.6527

siesta: Stress tensor (static) (eV/Ang**3):
         0.098486   -0.013945   -0.020909
        -0.013949    0.108578    0.012617
        -0.020907    0.012619    0.134907

siesta: Pressure (static):       -182.63426501  kBar

siesta: Stress tensor (total) (eV/Ang**3):
         0.098486   -0.013945   -0.020909
        -0.013949    0.108578    0.012617
        -0.020907    0.012619    0.134907

siesta: Pressure (total):       -182.63426501  kBar

cgvc: Finished line minimization    2.  Mean atomic displacement =    0.0660
Volume before coercion:      95.0820

                     ====================================
                        Begin CG opt. move =      7
                     ====================================

outcoor: Atomic coordinates (fractional):                   
   -0.00000000    0.00000000   -0.00000000   1       1  Mg
    0.50000000    0.50000000    0.50000000   1       2  Mg
    0.25191239    0.24999991    0.24808757   2       3  C
   -0.25191239   -0.24999991   -0.24808757   2       4  C
    0.53866565   -0.05595154    0.24486476   3       5  O
    0.25513528    0.55595093   -0.03866468   3       6  O
   -0.04475016    0.25000068    0.54475072   3       7  O
   -0.53866565    0.05595154   -0.24486475   3       8  O
   -0.25513529   -0.55595093    0.03866468   3       9  O
    0.04475016   -0.25000068   -0.54475071   3      10  O
 Kpoints in:           60 . Kpoints trimmed:           60

siesta: k-grid: Number of k-points =    60
siesta: k-grid: Cutoff (effective) =    11.206 Ang
siesta: k-grid: Supercell and displacements
siesta: k-grid:    5  -5   0      0.500
siesta: k-grid:    0  -5   5      0.000
siesta: k-grid:    4   0   0      0.000

superc: Internal auxiliary supercell:     5 x     5 x     5  =     125
superc: Number of atoms, orbitals, and projectors:   1250   4250  10000

outcell: Unit cell vectors (Ang):
        5.602861   -0.054461    0.010988
        3.695433    4.254379   -0.057353
        3.578163    1.757164    3.937554

outcell: Cell vector modules (Ang)   :    5.603136    5.635535    5.603143
outcell: Cell angles (23,13,12) (deg):     49.5829     50.4391     49.5828
outcell: Cell volume (Ang**3)        :     95.1306
<dSpData1D:S at geom step 7
  <sparsity:sparsity for geom step 7
    nrows_g=34 nrows=6 sparsity=2.0415 nnzs=2360, refcount: 7>
  <dData1D:(new from dSpData1D) n=2360, refcount: 1>
refcount: 1>
new_DM -- step:     8
Re-using DM from previous geometries...
Number of DMs in history: 1
 DM extrapolation coefficients: 
1   1.00000
New DM after history re-use:
<dSpData2D:SpM extrapolated using coords
  <sparsity:sparsity for geom step 7
    nrows_g=34 nrows=6 sparsity=2.0415 nnzs=2360, refcount: 9>
  <dData2D:(temp array for extrapolation) n=2360 m=1, refcount: 1>
refcount: 1>
No. of atoms with KB's overlaping orbs in proc 0. Max # of overlaps:      91      85
New grid distribution:   1
           1       1:   15    1:    8    1:    4
           2       1:   15    1:    8    5:    8
           3       1:   15    1:    8    9:   12
           4       1:   15    1:    8   13:   15
           5       1:   15    9:   15    1:    4
           6       1:   15    9:   15    5:    8
           7       1:   15    9:   15    9:   12
           8       1:   15    9:   15   13:   15

InitMesh: MESH =    30 x    30 x    30 =       27000
InitMesh: (bp) =    15 x    15 x    15 =        3375
InitMesh: Mesh cutoff (required, used) =   100.000   103.455 Ry
ExtMesh (bp) on 0 =    71 x    64 x    60 =      272640
New grid distribution:   2
           1       9:   15    8:   15    1:    8
           2       1:    7    1:    7    1:    8
           3       1:    8    1:    8    9:   15
           4       9:   15    1:    8    9:   15
           5       1:    8    8:   15    1:    8
           6       8:   15    1:    7    1:    8
           7       1:    8    9:   15    9:   15
           8       9:   15    9:   15    9:   15
New grid distribution:   3
           1       1:    8    1:    8    1:    8
           2       9:   15    9:   15    1:    8
           3       1:    8    1:    8    9:   15
           4       9:   15    1:    8    9:   15
           5       1:    8    9:   15    1:    8
           6       9:   15    1:    8    1:    8
           7       1:    8    9:   15    9:   15
           8       9:   15    9:   15    9:   15
Setting up quadratic distribution...
ExtMesh (bp) on 0 =    63 x    64 x    64 =      258048
PhiOnMesh: Number of (b)points on node 0 =                  448
PhiOnMesh: nlist on node 0 =                 9238

        iscf     Eharris(eV)        E_KS(eV)     FreeEng(eV)     dDmax    Ef(eV) dHmax(eV)
   scf:    1    -2959.032623    -2959.597004    -2959.597004  0.042004 -4.251932  0.194654
   scf:    2    -2959.513065    -2959.575372    -2959.575372  0.025493 -4.296658  0.496819
   scf:    3    -2959.611797    -2959.603311    -2959.603311  0.017948 -4.267308  0.032863
   scf:    4    -2959.603614    -2959.603499    -2959.603499  0.001372 -4.271309  0.017417
   scf:    5    -2959.603639    -2959.603584    -2959.603584  0.000805 -4.272795  0.013548
   scf:    6    -2959.603633    -2959.603613    -2959.603613  0.000402 -4.274224  0.001882
   scf:    7    -2959.603614    -2959.603614    -2959.603614  0.000056 -4.274308  0.001708
   scf:    8    -2959.603614    -2959.603614    -2959.603614  0.000011 -4.274255  0.001504
   scf:    9    -2959.603614    -2959.603614    -2959.603614  0.000012 -4.274210  0.001288
   scf:   10    -2959.603614    -2959.603614    -2959.603614  0.000010 -4.274164  0.001097
   scf:   11    -2959.603614    -2959.603614    -2959.603614  0.000007 -4.274121  0.000937

SCF Convergence by DM+H criterion
max |DM_out - DM_in|         :     0.0000069077
max |H_out - H_in|      (eV) :     0.0009366172
SCF cycle converged after 11 iterations

Using DM_out to compute the final energy and forces
No. of atoms with KB's overlaping orbs in proc 0. Max # of overlaps:      91      85

siesta: E_KS(eV) =            -2959.6036

siesta: Atomic forces (eV/Ang):
     1    0.000000    0.000000    0.000000
     2   -0.000000    0.000000   -0.000000
     3   -0.303377    0.271493    0.588397
     4    0.303378   -0.271492   -0.588397
     5    0.981410    0.497671   -0.047000
     6   -0.755854   -0.699562   -0.390444
     7    0.173338   -0.154918   -0.334986
     8   -0.981410   -0.497670    0.047000
     9    0.755854    0.699562    0.390444
    10   -0.173338    0.154917    0.334986
----------------------------------------
   Tot    0.000002   -0.000000   -0.000000
----------------------------------------
   Max    0.981410
   Res    0.454930    sqrt( Sum f_i^2 / 3N )
----------------------------------------
   Max    0.981410    constrained

Stress tensor Voigt[x,y,z,yz,xz,xy] (kbar):      151.12      162.27      180.23        3.75      -11.76      -15.73
(Free)E + p*V (eV/cell)    -2969.3732
Target enthalpy (eV/cell)    -2959.6036

siesta: Stress tensor (static) (eV/Ang**3):
         0.094323   -0.009831   -0.007332
        -0.009819    0.101280    0.002347
        -0.007337    0.002341    0.112487

siesta: Pressure (static):       -164.54003353  kBar

siesta: Stress tensor (total) (eV/Ang**3):
         0.094323   -0.009831   -0.007332
        -0.009819    0.101280    0.002347
[...]
PhiOnMesh: Number of (b)points on node 0 =                  448
PhiOnMesh: nlist on node 0 =                 9244

        iscf     Eharris(eV)        E_KS(eV)     FreeEng(eV)     dDmax    Ef(eV) dHmax(eV)
   scf:    1    -2960.067408    -2959.675974    -2959.675974  0.030170 -4.334335  0.195130
   scf:    2    -2959.600109    -2959.655918    -2959.655918  0.025111 -4.312402  0.509250
   scf:    3    -2959.688313    -2959.680835    -2959.680835  0.017670 -4.327271  0.026933
   scf:    4    -2959.681084    -2959.680998    -2959.680998  0.001274 -4.322436  0.014489
   scf:    5    -2959.681016    -2959.681011    -2959.681011  0.000348 -4.321274  0.009673
   scf:    6    -2959.681072    -2959.681044    -2959.681044  0.000408 -4.319270  0.003907
   scf:    7    -2959.681052    -2959.681048    -2959.681048  0.000184 -4.318400  0.001331
   scf:    8    -2959.681049    -2959.681049    -2959.681049  0.000018 -4.318369  0.001120
   scf:    9    -2959.681049    -2959.681049    -2959.681049  0.000007 -4.318400  0.000973

SCF Convergence by DM+H criterion
max |DM_out - DM_in|         :     0.0000073393
max |H_out - H_in|      (eV) :     0.0009725263
SCF cycle converged after 9 iterations

Using DM_out to compute the final energy and forces
No. of atoms with KB's overlaping orbs in proc 0. Max # of overlaps:      92      85

siesta: E_KS(eV) =            -2959.6810

siesta: Atomic forces (eV/Ang):
     1   -0.000000    0.000000   -0.000000
     2    0.000000   -0.000000   -0.000000
     3   -0.173474    0.155225    0.336449
     4    0.173474   -0.155225   -0.336448
     5   -0.045825    0.263631   -0.073455
     6   -0.004244   -0.218854    0.170610
     7    0.282053   -0.252470   -0.547123
     8    0.045826   -0.263631    0.073455
     9    0.004245    0.218854   -0.170610
    10   -0.282053    0.252470    0.547123
----------------------------------------
   Tot    0.000000    0.000001    0.000000
----------------------------------------
   Max    0.547123
   Res    0.225691    sqrt( Sum f_i^2 / 3N )
----------------------------------------
   Max    0.547123    constrained

Stress tensor Voigt[x,y,z,yz,xz,xy] (kbar):      153.24      168.77      206.03       16.63      -29.03      -21.38
(Free)E + p*V (eV/cell)    -2970.1319
Target enthalpy (eV/cell)    -2959.6810

siesta: Stress tensor (static) (eV/Ang**3):
         0.095646   -0.013331   -0.018126
        -0.013342    0.105335    0.010376
        -0.018120    0.010382    0.128594

siesta: Pressure (static):       -176.01428587  kBar

siesta: Stress tensor (total) (eV/Ang**3):
         0.095646   -0.013331   -0.018126
        -0.013342    0.105335    0.010376
        -0.018120    0.010382    0.128594

siesta: Pressure (total):       -176.01428587  kBar

cgvc: Finished line minimization    3.  Mean atomic displacement =    0.0195
Volume before coercion:      95.0842

                     ====================================
                        Begin CG opt. move =      9
                     ====================================

outcoor: Atomic coordinates (fractional):                   
   -0.00000000    0.00000000   -0.00000000   1       1  Mg
    0.50000000    0.50000000    0.50000000   1       2  Mg
    0.24901358    0.25000002    0.25098640   2       3  C
   -0.24901358   -0.25000002   -0.25098640   2       4  C
    0.54271567   -0.05285582    0.24738765   3       5  O
    0.25261234    0.55285527   -0.04271502   3       6  O
   -0.04367867    0.24999994    0.54367827   3       7  O
   -0.54271567    0.05285583   -0.24738765   3       8  O
   -0.25261234   -0.55285527    0.04271502   3       9  O
    0.04367868   -0.24999994   -0.54367827   3      10  O
 Kpoints in:           60 . Kpoints trimmed:           60

siesta: k-grid: Number of k-points =    60
siesta: k-grid: Cutoff (effective) =    11.193 Ang
siesta: k-grid: Supercell and displacements
siesta: k-grid:    5  -5   0      0.500
siesta: k-grid:    0  -5   5      0.000
siesta: k-grid:    4   0   0      0.000

superc: Internal auxiliary supercell:     5 x     5 x     5  =     125
superc: Number of atoms, orbitals, and projectors:   1250   4250  10000

outcell: Unit cell vectors (Ang):
        5.596158   -0.059885   -0.001148
        3.686922    4.247365   -0.058508
        3.563661    1.758716    3.940537

outcell: Cell vector modules (Ang)   :    5.596478    5.624671    5.596481
outcell: Cell angles (23,13,12) (deg):     49.6560     50.7116     49.6560
outcell: Cell volume (Ang**3)        :     95.1306
<dSpData1D:S at geom step 9
  <sparsity:sparsity for geom step 9
    nrows_g=34 nrows=6 sparsity=2.0588 nnzs=2380, refcount: 7>
  <dData1D:(new from dSpData1D) n=2380, refcount: 1>
refcount: 1>
new_DM -- step:    10
Re-using DM from previous geometries...
Number of DMs in history: 1
 DM extrapolation coefficients: 
1   1.00000
New DM after history re-use:
<dSpData2D:SpM extrapolated using coords
  <sparsity:sparsity for geom step 9
    nrows_g=34 nrows=6 sparsity=2.0588 nnzs=2380, refcount: 9>
  <dData2D:(temp array for extrapolation) n=2380 m=1, refcount: 1>
refcount: 1>
No. of atoms with KB's overlaping orbs in proc 0. Max # of overlaps:      92      85
New grid distribution:   1
           1       1:   15    1:    8    1:    4
           2       1:   15    1:    8    5:    8
           3       1:   15    1:    8    9:   12
           4       1:   15    1:    8   13:   15
           5       1:   15    9:   15    1:    4
           6       1:   15    9:   15    5:    8
           7       1:   15    9:   15    9:   12
           8       1:   15    9:   15   13:   15

InitMesh: MESH =    30 x    30 x    30 =       27000
InitMesh: (bp) =    15 x    15 x    15 =        3375
InitMesh: Mesh cutoff (required, used) =   100.000   103.924 Ry
ExtMesh (bp) on 0 =    71 x    64 x    60 =      272640
New grid distribution:   2
           1       9:   15    8:   15    1:    8
           2       1:    7    1:    7    1:    8
           3       1:    8    1:    8    9:   15
           4       9:   15    1:    8    9:   15
           5       1:    8    8:   15    1:    8
           6       8:   15    1:    7    1:    8
           7       1:    8    9:   15    9:   15
           8       9:   15    9:   15    9:   15
New grid distribution:   3
           1       1:    8    1:    8    1:    8
           2       9:   15    9:   15    1:    8
           3       1:    8    1:    8    9:   15
           4       9:   15    1:    8    9:   15
           5       1:    8    9:   15    1:    8
           6       9:   15    1:    8    1:    8
           7       1:    8    9:   15    9:   15
           8       9:   15    9:   15    9:   15
Setting up quadratic distribution...
ExtMesh (bp) on 0 =    63 x    64 x    64 =      258048
PhiOnMesh: Number of (b)points on node 0 =                  448
PhiOnMesh: nlist on node 0 =                 9242

        iscf     Eharris(eV)        E_KS(eV)     FreeEng(eV)     dDmax    Ef(eV) dHmax(eV)
   scf:    1    -2959.275233    -2959.693997    -2959.693997  0.017386 -4.179236  0.269469
   scf:    2    -2959.429426    -2959.620351    -2959.620351  0.033875 -4.242161  0.794196
   scf:    3    -2959.729268    -2959.706056    -2959.706056  0.024976 -4.197649  0.049605
   scf:    4    -2959.706393    -2959.706309    -2959.706309  0.001884 -4.202950  0.017096
   scf:    5    -2959.706358    -2959.706339    -2959.706339  0.000224 -4.203542  0.012853
   scf:    6    -2959.706422    -2959.706390    -2959.706390  0.000496 -4.204838  0.004291
   scf:    7    -2959.706397    -2959.706395    -2959.706395  0.000212 -4.205410  0.000542

SCF Convergence by DM+H criterion
max |DM_out - DM_in|         :     0.0002122406
max |H_out - H_in|      (eV) :     0.0005420426
SCF cycle converged after 7 iterations

Using DM_out to compute the final energy and forces
No. of atoms with KB's overlaping orbs in proc 0. Max # of overlaps:      92      85

siesta: E_KS(eV) =            -2959.7064

siesta: Atomic forces (eV/Ang):
     1    0.000000   -0.000000    0.000000
     2   -0.000000   -0.000000    0.000000
     3    0.055173   -0.049392   -0.107037
     4   -0.055172    0.049393    0.107036
     5   -0.043261    0.074946   -0.104352
     6    0.076390   -0.104593    0.040209
     7    0.011194   -0.010059   -0.021773
     8    0.043261   -0.074946    0.104352
     9   -0.076391    0.104593   -0.040209
    10   -0.011194    0.010059    0.021773
----------------------------------------
   Tot    0.000000    0.000001    0.000001
----------------------------------------
   Max    0.107037
   Res    0.060228    sqrt( Sum f_i^2 / 3N )
----------------------------------------
   Max    0.107037    constrained

Stress tensor Voigt[x,y,z,yz,xz,xy] (kbar):      151.18      161.23      179.18        6.78      -14.17      -12.25
(Free)E + p*V (eV/cell)    -2969.4358
Target enthalpy (eV/cell)    -2959.7064

siesta: Stress tensor (static) (eV/Ang**3):
         0.094360   -0.007643   -0.008842
        -0.007645    0.100629    0.004233
        -0.008841    0.004234    0.111833

siesta: Pressure (static):       -163.86277847  kBar

siesta: Stress tensor (total) (eV/Ang**3):
         0.094360   -0.007643   -0.008842
        -0.007645    0.100629    0.004233
        -0.008841    0.004234    0.111833

siesta: Pressure (total):       -163.86277847  kBar
Volume before coercion:      95.0843

                     ====================================
                        Begin CG opt. move =     10
                     ====================================

outcoor: Atomic coordinates (fractional):                   
   -0.00000000    0.00000000   -0.00000000   1       1  Mg
    0.50000000    0.50000000    0.50000000   1       2  Mg
    0.24745294    0.25000006    0.25254722   2       3  C
   -0.24745295   -0.25000006   -0.25254722   2       4  C
    0.54219472   -0.05134947    0.24736001   3       5  O
    0.25264007    0.55134874   -0.04219388   3       6  O
   -0.04107532    0.24999928    0.54107382   3       7  O
   -0.54219472    0.05134947   -0.24736001   3       8  O
   -0.25264007   -0.55134874    0.04219388   3       9  O
    0.04107532   -0.24999927   -0.54107382   3      10  O
 Kpoints in:           60 . Kpoints trimmed:           60

siesta: k-grid: Number of k-points =    60
siesta: k-grid: Cutoff (effective) =    11.225 Ang
siesta: k-grid: Supercell and displacements
siesta: k-grid:    5  -5   0      0.500
siesta: k-grid:    0  -5   5      0.000
siesta: k-grid:    4   0   0      0.000

superc: Internal auxiliary supercell:     5 x     5 x     5  =     125
superc: Number of atoms, orbitals, and projectors:   1250   4250  10000

outcell: Unit cell vectors (Ang):
        5.612498   -0.044566    0.019756
        3.709233    4.261487   -0.053522
        3.593632    1.761835    3.935003

outcell: Cell vector modules (Ang)   :    5.612709    5.649915    5.612709
outcell: Cell angles (23,13,12) (deg):     49.4235     50.1919     49.4234
outcell: Cell volume (Ang**3)        :     95.1306
<dSpData1D:S at geom step 10
  <sparsity:sparsity for geom step 10
    nrows_g=34 nrows=6 sparsity=2.0415 nnzs=2360, refcount: 7>
  <dData1D:(new from dSpData1D) n=2360, refcount: 1>
refcount: 1>
new_DM -- step:    11
Re-using DM from previous geometries...
Number of DMs in history: 1
 DM extrapolation coefficients: 
1   1.00000
New DM after history re-use:
<dSpData2D:SpM extrapolated using coords
  <sparsity:sparsity for geom step 10
    nrows_g=34 nrows=6 sparsity=2.0415 nnzs=2360, refcount: 9>
  <dData2D:(temp array for extrapolation) n=2360 m=1, refcount: 1>
refcount: 1>
No. of atoms with KB's overlaping orbs in proc 0. Max # of overlaps:      91      85
New grid distribution:   1
           1       1:   15    1:    8    1:    4
           2       1:   15    1:    8    5:    8
           3       1:   15    1:    8    9:   12
           4       1:   15    1:    8   13:   15
           5       1:   15    9:   15    1:    4
           6       1:   15    9:   15    5:    8
           7       1:   15    9:   15    9:   12
           8       1:   15    9:   15   13:   15

InitMesh: MESH =    30 x    30 x    30 =       27000
InitMesh: (bp) =    15 x    15 x    15 =        3375
InitMesh: Mesh cutoff (required, used) =   100.000   102.820 Ry
ExtMesh (bp) on 0 =    71 x    64 x    60 =      272640
New grid distribution:   2
           1       9:   15    8:   15    1:    8
           2       1:    7    1:    7    1:    8
           3       1:    8    1:    8    9:   15
           4       9:   15    1:    8    9:   15
           5       1:    8    8:   15    1:    8
           6       8:   15    1:    7    1:    8
           7       1:    8    9:   15    9:   15
           8       9:   15    9:   15    9:   15
New grid distribution:   3
           1       1:    8    1:    8    1:    8
           2       9:   15    9:   15    1:    8
           3       1:    8    1:    8    9:   15
           4       9:   15    1:    8    9:   15
           5       1:    8    9:   15    1:    8
           6       9:   15    1:    8    1:    8
           7       1:    8    9:   15    9:   15
           8       9:   15    9:   15    9:   15
Setting up quadratic distribution...
ExtMesh (bp) on 0 =    63 x    64 x    64 =      258048
PhiOnMesh: Number of (b)points on node 0 =                  448
PhiOnMesh: nlist on node 0 =                 9230

        iscf     Eharris(eV)        E_KS(eV)     FreeEng(eV)     dDmax    Ef(eV) dHmax(eV)
   scf:    1    -2958.918604    -2959.651856    -2959.651856  0.027905 -3.933535  0.419427
   scf:    2    -2959.029587    -2959.479332    -2959.479332  0.052045 -4.078385  1.210365
   scf:    3    -2959.736224    -2959.681028    -2959.681028  0.038137 -3.976001  0.078212
   scf:    4    -2959.681662    -2959.681583    -2959.681583  0.003340 -3.988899  0.021033
   scf:    5    -2959.681569    -2959.681579    -2959.681579  0.000407 -3.990432  0.023332
   scf:    6    -2959.681885    -2959.681768    -2959.681768  0.001210 -3.990687  0.010782
   scf:    7    -2959.681814    -2959.681797    -2959.681797  0.000530 -3.992755  0.001284
   scf:    8    -2959.681797    -2959.681797    -2959.681797  0.000041 -3.992839  0.000828

SCF Convergence by DM+H criterion
max |DM_out - DM_in|         :     0.0000411709
max |H_out - H_in|      (eV) :     0.0008283086
SCF cycle converged after 8 iterations

Using DM_out to compute the final energy and forces
No. of atoms with KB's overlaping orbs in proc 0. Max # of overlaps:      91      85

siesta: E_KS(eV) =            -2959.6818

siesta: Atomic forces (eV/Ang):
     1    0.000000   -0.000000    0.000000
     2    0.000000    0.000000   -0.000000
     3    0.482512   -0.431808   -0.935881
     4   -0.482511    0.431808    0.935880
     5   -0.066027   -0.154962   -0.125861
     6    0.179982    0.053039   -0.094930
     7   -0.529224    0.473242    1.025842
     8    0.066027    0.154962    0.125862
     9   -0.179982   -0.053039    0.094931
    10    0.529226   -0.473240   -1.025842
----------------------------------------
   Tot    0.000002    0.000003    0.000001
----------------------------------------
   Max    1.025842
   Res    0.442716    sqrt( Sum f_i^2 / 3N )
----------------------------------------
   Max    1.025842    constrained

Stress tensor Voigt[x,y,z,yz,xz,xy] (kbar):      146.94      150.57      134.03      -10.32       10.09        3.68
(Free)E + p*V (eV/cell)    -2968.2227
Target enthalpy (eV/cell)    -2959.6818

siesta: Stress tensor (static) (eV/Ang**3):
         0.091711    0.002302    0.006297
         0.002299    0.093975   -0.006443
         0.006298   -0.006441    0.083657

siesta: Pressure (static):       -143.84641050  kBar

siesta: Stress tensor (total) (eV/Ang**3):
         0.091711    0.002302    0.006297
         0.002299    0.093975   -0.006443
         0.006298   -0.006441    0.083657

siesta: Pressure (total):       -143.84641050  kBar
Volume before coercion:      95.0848

outcoor: Final (unrelaxed) atomic coordinates (fractional): 
   -0.00000000    0.00000000   -0.00000000   1       1  Mg
    0.50000000    0.50000000    0.50000000   1       2  Mg
    0.24745294    0.25000006    0.25254722   2       3  C
   -0.24745295   -0.25000006   -0.25254722   2       4  C
    0.54219472   -0.05134947    0.24736001   3       5  O
    0.25264007    0.55134874   -0.04219388   3       6  O
   -0.04107532    0.24999928    0.54107382   3       7  O
   -0.54219472    0.05134947   -0.24736001   3       8  O
   -0.25264007   -0.55134874    0.04219388   3       9  O
    0.04107532   -0.24999927   -0.54107382   3      10  O

outcell: Unit cell vectors (Ang):
        5.612498   -0.044566    0.019756
        3.709233    4.261487   -0.053522
        3.593632    1.761835    3.935003

outcell: Cell vector modules (Ang)   :    5.612709    5.649915    5.612709
outcell: Cell angles (23,13,12) (deg):     49.4235     50.1919     49.4234
outcell: Cell volume (Ang**3)        :     95.1306

siesta: Program's energy decomposition (eV):
siesta: Ebs     =      -595.929165
siesta: Eions   =      5228.674091
siesta: Ena     =      1099.378976
siesta: Ekin    =      2242.017139
siesta: Enl     =      -348.099216
siesta: Eso     =         0.000000
siesta: Edftu   =         0.000000
siesta: DEna    =       -35.059996
siesta: DUscf   =         6.520207
siesta: DUext   =         0.000000
siesta: Exc     =      -695.764816
siesta: eta*DQ  =         0.000000
siesta: Emadel  =         0.000000
siesta: Emeta   =         0.000000
siesta: Emolmec =         0.000000
siesta: Ekinion =         0.000000
siesta: Eharris =     -2959.681797
siesta: Etot    =     -2959.681797
siesta: FreeEng =     -2959.681797

siesta: Final energy (eV):
siesta:  Band Struct. =    -595.929165
siesta:       Kinetic =    2242.017139
siesta:       Hartree =     949.857204
siesta:       Edftu   =       0.000000
siesta:       Eso     =       0.000000
siesta:    Ext. field =       0.000000
siesta:   Exch.-corr. =    -695.764816
siesta:  Ion-electron =   -3825.970946
siesta:       Ion-ion =   -1629.820379
siesta:       Ekinion =       0.000000
siesta:         Total =   -2959.681797
siesta:         Fermi =      -3.992839

siesta: Atomic forces (eV/Ang):
siesta:      1    0.000000   -0.000000    0.000000
siesta:      2    0.000000    0.000000   -0.000000
siesta:      3    0.482512   -0.431808   -0.935881
siesta:      4   -0.482511    0.431808    0.935880
siesta:      5   -0.066027   -0.154962   -0.125861
siesta:      6    0.179982    0.053039   -0.094930
siesta:      7   -0.529224    0.473242    1.025842
siesta:      8    0.066027    0.154962    0.125862
siesta:      9   -0.179982   -0.053039    0.094931
siesta:     10    0.529226   -0.473240   -1.025842
siesta: ----------------------------------------
siesta:    Tot    0.000002    0.000003    0.000001

siesta: Stress tensor (static) (eV/Ang**3):
siesta:     0.091711    0.002302    0.006297
siesta:     0.002299    0.093975   -0.006443
siesta:     0.006298   -0.006441    0.083657

siesta: Constrained stress tensor (static) (eV/Ang**3):
siesta:     0.091711    0.002301    0.006297
siesta:     0.002301    0.093975   -0.006442
siesta:     0.006297   -0.006442    0.083657

siesta: Cell volume =         95.130619 Ang**3

siesta: Pressure (static):
siesta:                Solid            Molecule  Units
siesta:          -0.00097783         -0.00113406  Ry/Bohr**3
siesta:          -0.08978090         -0.10412589  eV/Ang**3
siesta:        -143.84641050       -166.82986411  kBar
(Free)E+ p_basis*V_orbitals  =       -2958.487500
(Free)Eharris+ p_basis*V_orbitals  =       -2958.487500

cite: Please see "constant_volume.bib" for an exhaustive BiBTeX file.
cite: Please clearly indicate Siesta version in published work: v4.1-b4-351
cite: This calculation has made use of the following articles
cite: which are encouraged to be cited in a published work.
        Primary SIESTA paper
          DOI: www.doi.org/10.1088/0953-8984/14/11/302

>> End of run:  22-JAN-2021  21:49:52
Job completed
