Siesta Version  : v4.1-b4-351
Architecture    : x86_64-linux-n-62-26-19
Compiler version: GNU Fortran (GCC) 9.3.0
Compiler flags  : mpifort -m64 -fPIC -O3 -march=native -ftree-vectorize -fexpensive-optimizatioons -funroll-loops -fprefetch-loop-arrays -fno-second-underscore  -flto
PP flags        : -I/dtu/sw/dcc/SL73/2020-aug/generic/build-tools/1.0/include -I/dtu/sw/dcc/SL773/2020-aug/generic/gcc/9.3.0/include -I/dtu/sw/dcc/SL73/2020-aug/generic/gcc/9.3.0/include -I/dtu/sw/dcc/SL73/2020-aug/XeonE5-2660v3/gnu/9.3.0/zlib/1.2.11/include -I/dtu/sw/dcc/SL73/2020-aug/generic/numactl/2.0.12/include -I/dtu/sw/dcc/SL73/2020-aug/XeonE5-2660v3/gnu/9.3.0/libxml2/2.9.10/include -I/dtu/sw/dcc/SL73/2020-aug/XeonE5-2660v3/gnu/9.3.0/hwloc/2.2.0/include -I/dtu/sw/dcc/SL73/2020-aug/XeonE5-2660v3/gnu/9.3.0/knem/1.1.4/include -I/dtu/sw/dcc/SL73/2020-aug/XeonE5-2660v3/gnu/9.3.0/ucx/1.8.1/include -I/dtu/sw/dcc/SL73/2020-aug/XeonE5-2660v3/gnu/9.3.0/openmpi/4.0.4/include -I/dtu/sw/dcc/SL73/2020-aug/XeonE5-2660v3/gnu/9.3.0/szip/2.1.1/include -I/dtu/sw/dcc/SL73/2020-aug/XeonE5-2660v3/gnu/9.3.0/hdf5/1.12.0/include -I/dtu/sw/dcc/SL73/2020-aug/XeonE5-2660v3/gnu/9.3.0/pnetcdf/1.12.1/include -I/dtu/sw/dcc/SL73/2020-aug/generic/gen-zlib/1.2.11/include -I/dtu/sw/dcc/SL73/2020-aug/generic/openssl/1.1.1/include -I/dtu/sw/dcc/SL73/2020-aug/generic/libssh2/1.8.2/include -I/dtu/sw/dcc/SL73/2020-aug/generic/curl/7.65.1/include -I/dtu/sw/dcc/SL73/2020-aug/XeonE5-2660v3/gnu/9.3.0/netcdf/4.7.4/include -I/dtu/sw/dcc/SL73/2020-aug/XeonE5-2660v3/gnu/9.3.0/flook/0.8.1/include -I/dtu/sw/dcc/SL73/2020-aug/XeonE5-2660v3/gnu/9.3.0/fftw/3.3.8/include -I/dtu/sw/dcc/SL73/2020-aug/XeonE5-2660v3/gnu/9.3.0/parmetis/4.0.3/include -I/dtu/sw/dcc/SL73/2020-aug/XeonE5-2660v3/gnu/9.3.0/scalapack/2.1.0/include -I/dtu/sw/dcc/SL73/2020-aug/XeonE5-2660v3/gnu/9.3.0/lapack/3.9.0/include -I/dtu/sw/dcc/SL73/2020-aug/XeonE5-2660v3/gnu/9.3.0/blis/0.7.0/include -I/dtu/sw/dcc/SL73/2020-aug/XeonE5-2660v3/gnu/9.3.0/scotch/6.0.9/include -I/dtu/sw/dcc/SL73/2020-aug/XeonE5-2660v3/gnu/9.3.0/mumps/5.3.3/include -I/dtu/sw/dcc/SL73/2020-aug/XeonE5-2660v3/gnu/9.3.0/elpa/2020.05.001/include -DSIESTA__ELPA -DMPI -DFC_HAVE_FLUSH -DFC_HAVE_ABORT -DCDF -DCDF4 -DSIESTA__FLOOK  -DNCDF -DNCDF_4 -DNCDF_PARALLEL -DTS_NOCHECKS -DSIESTA__METIS -DSIESTA__MUMPS -DSIESTA__MRRR -I/dtu/sw/dcc/SL73/2020-aug/XeonE5-2660v3/gnu/9.3.0/elpa/2020.05.001/include/elpa
Libraries       : libncdf.a libfdict.a -lnetcdff -lnetcdf -lpnetcdf -lhdf5_hl -lhdf5 -lz  -lzmuumps -lmumps_common -lesmumps -lscotch -lscotcherr -lpord -lparmetis -lmetis -lelpa -lscalapack -llapack -lblis  -L/dtu/sw/dcc/SL73/2020-aug/XeonE5-2660v3/gnu/9.3.0/flook/0.8.1/lib -Wl,-rpath=/dtu/sw/dcc/SL73/2020-aug/XeonE5-2660v3/gnu/9.3.0/flook/0.8.1/lib -lflookall -ldl  -flto -fuse-linker-plugin  -lmetis
PARALLEL version
NetCDF support
NetCDF-4 support
NetCDF-4 MPI-IO support
METIS ordering support
Lua support

* Running on 8 nodes in parallel
>> Start of run:  22-JAN-2021  21:49:54

                           ***********************       
                           *  WELCOME TO SIESTA  *       
                           ***********************       

reinit: Reading from ../dipole_correction.fdf

reinit: -----------------------------------------------------------------------
reinit: System Name: Water molecule layer with dipole -- automatic correction
reinit: -----------------------------------------------------------------------
reinit: System Label: dipole_correction
reinit: -----------------------------------------------------------------------

initatom: Reading input for the pseudopotentials and atomic orbitals ----------
Species number:   1 Atomic number:    8 Label: O
Species number:   2 Atomic number:    1 Label: H

Ground state valence configuration:   2s02  2p04
Reading pseudopotential information in formatted form from O.psf

Valence configuration for pseudopotential generation:
2s( 2.00) rc: 1.14
2p( 4.00) rc: 1.14
3d( 0.00) rc: 1.14
4f( 0.00) rc: 1.14
Ground state valence configuration:   1s01
Reading pseudopotential information in formatted form from H.psf

Valence configuration for pseudopotential generation:
1s( 1.00) rc: 1.25
2p( 0.00) rc: 1.25
3d( 0.00) rc: 1.25
4f( 0.00) rc: 1.25
For O, standard SIESTA heuristics set lmxkb to 3
 (one more than the basis l, including polarization orbitals).
Use PS.lmax or PS.KBprojectors blocks to override.
For H, standard SIESTA heuristics set lmxkb to 2
 (one more than the basis l, including polarization orbitals).
Use PS.lmax or PS.KBprojectors blocks to override.

<basis_specs>
===============================================================================
O                    Z=   8    Mass=  16.000        Charge= 0.17977+309
Lmxo=1 Lmxkb= 3    BasisType=split      Semic=F
L=0  Nsemic=0  Cnfigmx=2
          i=1  nzeta=2  polorb=0  (2s)
            splnorm:   0.15000    
               vcte:    0.0000    
               rinn:    0.0000    
               qcoe:    0.0000    
               qyuk:    0.0000    
               qwid:   0.10000E-01
                rcs:    0.0000      0.0000    
            lambdas:    1.0000      1.0000    
L=1  Nsemic=0  Cnfigmx=2
          i=1  nzeta=2  polorb=1  (2p)
            splnorm:   0.15000    
               vcte:    0.0000    
               rinn:    0.0000    
               qcoe:    0.0000    
               qyuk:    0.0000    
               qwid:   0.10000E-01
                rcs:    0.0000      0.0000    
            lambdas:    1.0000      1.0000    
-------------------------------------------------------------------------------
L=0  Nkbl=1  erefs: 0.17977+309
L=1  Nkbl=1  erefs: 0.17977+309
L=2  Nkbl=1  erefs: 0.17977+309
L=3  Nkbl=1  erefs: 0.17977+309
===============================================================================
</basis_specs>

atom: Called for O                     (Z =   8)

read_vps: Pseudopotential generation method:
read_vps: ATM3      Troullier-Martins                       
Valence charge for ps generation:    6.00000

xc_check: Exchange-correlation functional:
xc_check: Ceperley-Alder
V l=0 = -2*Zval/r beyond r=  1.1278
V l=1 = -2*Zval/r beyond r=  1.1278
V l=2 = -2*Zval/r beyond r=  1.1278
V l=3 = -2*Zval/r beyond r=  1.1138
All V_l potentials equal beyond r=  1.1278
This should be close to max(r_c) in ps generation
All pots = -2*Zval/r beyond r=  1.1278

VLOCAL1: 99.0% of the norm of Vloc inside     34.126 Ry
VLOCAL1: 99.9% of the norm of Vloc inside     77.774 Ry
atom: Maximum radius for 4*pi*r*r*local-pseudopot. charge    1.37759
atom: Maximum radius for r*vlocal+2*Zval:    1.18566
GHOST: No ghost state for L =  0
GHOST: No ghost state for L =  1
GHOST: No ghost state for L =  2
GHOST: No ghost state for L =  3

KBgen: Kleinman-Bylander projectors: 
   l= 0   rc=  1.294105   el= -1.742414   Ekb=  9.135903   kbcos=  0.326910
   l= 1   rc=  1.294105   el= -0.676589   Ekb= -8.124878   kbcos= -0.395047
   l= 2   rc=  1.448233   el=  0.002386   Ekb= -2.039267   kbcos= -0.003484
   l= 3   rc=  1.561052   el=  0.003508   Ekb= -0.799141   kbcos= -0.000344

KBgen: Total number of  Kleinman-Bylander projectors:   16
atom: -------------------------------------------------------------------------

atom: SANKEY-TYPE ORBITALS:
atom: Selected multiple-zeta basis: split     

SPLIT: Orbitals with angular momentum L= 0

SPLIT: Basis orbitals for state 2s

SPLIT: PAO cut-off radius determined from an
SPLIT: energy shift=  0.020000 Ry

   izeta = 1
                 lambda =    1.000000
                     rc =    3.305093
                 energy =   -1.723766
                kinetic =    1.614911
    potential(screened) =   -3.338677
       potential(ionic) =  -11.304675

   izeta = 2
                 rmatch =    2.510382
              splitnorm =    0.150000
                 energy =   -1.471299
                kinetic =    2.446434
    potential(screened) =   -3.917732
       potential(ionic) =  -12.476133

SPLIT: Orbitals with angular momentum L= 1

SPLIT: Basis orbitals for state 2p

SPLIT: PAO cut-off radius determined from an
SPLIT: energy shift=  0.020000 Ry

   izeta = 1
                 lambda =    1.000000
                     rc =    3.937239
                 energy =   -0.658841
                kinetic =    5.005986
    potential(screened) =   -5.664827
       potential(ionic) =  -13.452360

   izeta = 2
                 rmatch =    2.541963
              splitnorm =    0.150000
                 energy =   -0.367441
                kinetic =    7.530509
    potential(screened) =   -7.897949
       potential(ionic) =  -16.611953

POLgen: Perturbative polarization orbital with L=  2

POLgen: Polarization orbital for state 2p

   izeta = 1
                     rc =    3.937239
                 energy =    2.398520
                kinetic =    4.716729
    potential(screened) =   -2.318209
       potential(ionic) =   -8.603170
atom: Total number of Sankey-type orbitals: 13

atm_pop: Valence configuration (for local Pseudopot. screening):
 2s( 2.00)                                                            
 2p( 4.00)                                                            
Vna: chval, zval:    6.00000   6.00000

Vna:  Cut-off radius for the neutral-atom potential:   3.937239

atom: _________________________________________________________________________

<basis_specs>
===============================================================================
H                    Z=   1    Mass=  1.0100        Charge= 0.17977+309
Lmxo=0 Lmxkb= 2    BasisType=split      Semic=F
L=0  Nsemic=0  Cnfigmx=1
          i=1  nzeta=2  polorb=1  (1s)
            splnorm:   0.15000    
               vcte:    0.0000    
               rinn:    0.0000    
               qcoe:    0.0000    
               qyuk:    0.0000    
               qwid:   0.10000E-01
                rcs:    0.0000      0.0000    
            lambdas:    1.0000      1.0000    
-------------------------------------------------------------------------------
L=0  Nkbl=1  erefs: 0.17977+309
L=1  Nkbl=1  erefs: 0.17977+309
L=2  Nkbl=1  erefs: 0.17977+309
===============================================================================
</basis_specs>

atom: Called for H                     (Z =   1)

read_vps: Pseudopotential generation method:
read_vps: ATM3      Troullier-Martins                       
Valence charge for ps generation:    1.00000

xc_check: Exchange-correlation functional:
xc_check: Ceperley-Alder
V l=0 = -2*Zval/r beyond r=  1.2343
V l=1 = -2*Zval/r beyond r=  1.2189
V l=2 = -2*Zval/r beyond r=  1.2189
All V_l potentials equal beyond r=  1.2343
This should be close to max(r_c) in ps generation
All pots = -2*Zval/r beyond r=  1.2343

VLOCAL1: 99.0% of the norm of Vloc inside     28.493 Ry
VLOCAL1: 99.9% of the norm of Vloc inside     64.935 Ry
atom: Maximum radius for 4*pi*r*r*local-pseudopot. charge    1.45251
atom: Maximum radius for r*vlocal+2*Zval:    1.21892
GHOST: No ghost state for L =  0
GHOST: No ghost state for L =  1
GHOST: No ghost state for L =  2

KBgen: Kleinman-Bylander projectors: 
   l= 0   rc=  1.364359   el= -0.467325   Ekb= -2.005361   kbcos= -0.336422
   l= 1   rc=  1.434438   el=  0.001430   Ekb= -0.501708   kbcos= -0.021697
   l= 2   rc=  1.470814   el=  0.002365   Ekb= -0.190555   kbcos= -0.002281

KBgen: Total number of  Kleinman-Bylander projectors:    9
atom: -------------------------------------------------------------------------

atom: SANKEY-TYPE ORBITALS:
atom: Selected multiple-zeta basis: split     

SPLIT: Orbitals with angular momentum L= 0

SPLIT: Basis orbitals for state 1s

SPLIT: PAO cut-off radius determined from an
SPLIT: energy shift=  0.020000 Ry

   izeta = 1
                 lambda =    1.000000
                     rc =    4.828263
                 energy =   -0.449375
                kinetic =    0.929372
    potential(screened) =   -1.378747
       potential(ionic) =   -1.915047

   izeta = 2
                 rmatch =    3.854947
              splitnorm =    0.150000
                 energy =   -0.336153
                kinetic =    1.505294
    potential(screened) =   -1.841447
       potential(ionic) =   -2.413582

POLgen: Perturbative polarization orbital with L=  1

POLgen: Polarization orbital for state 1s

   izeta = 1
                     rc =    4.828263
                 energy =    0.706972
                kinetic =    1.396397
    potential(screened) =   -0.689424
       potential(ionic) =   -1.169792
atom: Total number of Sankey-type orbitals:  5

atm_pop: Valence configuration (for local Pseudopot. screening):
 1s( 1.00)                                                            
Vna: chval, zval:    1.00000   1.00000

Vna:  Cut-off radius for the neutral-atom potential:   4.828263

atom: _________________________________________________________________________

prinput: Basis input ----------------------------------------------------------

PAO.BasisType split     

%block ChemicalSpeciesLabel
    1    8 O                       # Species index, atomic number, species label
    2    1 H                       # Species index, atomic number, species label
%endblock ChemicalSpeciesLabel

%block PAO.Basis                 # Define Basis set
O                     2                    # Species label, number of l-shells
 n=2   0   2                         # n, l, Nzeta 
   3.305      2.510   
   1.000      1.000   
 n=2   1   2 P   1                   # n, l, Nzeta, Polarization, NzetaPol
   3.937      2.542   
   1.000      1.000   
H                     1                    # Species label, number of l-shells
 n=1   0   2 P   1                   # n, l, Nzeta, Polarization, NzetaPol
   4.828      3.855   
   1.000      1.000   
%endblock PAO.Basis

prinput: ----------------------------------------------------------------------

Dumping basis to NetCDF file O.ion.nc
Dumping basis to NetCDF file H.ion.nc
coor:   Atomic-coordinates input format  =     Cartesian coordinates
coor:                                          (in Angstroms)

siesta: Atomic coordinates (Bohr) and species
siesta:      0.00000   0.00000   9.44863  1        1
siesta:      1.43052   0.00000  10.55601  2        2
siesta:     -1.43052   0.00000  10.55601  2        3

siesta: System type = slab      

initatomlists: Number of atoms, orbitals, and projectors:      3    23    34

siesta: ******************** Simulation parameters ****************************
siesta:
siesta: The following are some of the parameters of the simulation.
siesta: A complete list of the parameters used, including default values,
siesta: can be found in file out.fdf
siesta:
redata: Spin configuration                          = none
redata: Number of spin components                   = 1
redata: Time-Reversal Symmetry                      = T
redata: Spin spiral                                 = F
redata: Long output                                 =   F
redata: Number of Atomic Species                    =        2
redata: Charge density info will appear in .RHO file
redata: Write Mulliken Pop.                         = NO
redata: Matel table size (NRTAB)                    =     1024
redata: Mesh Cutoff                                 =    50.0000 Ry
redata: Net charge of the system                    =     0.0000 |e|
redata: Min. number of SCF Iter                     =        0
redata: Max. number of SCF Iter                     =     1000
redata: SCF convergence failure will abort job
redata: SCF mix quantity                            = density-matrix
redata: Mix DM or H after convergence               =   F
redata: Recompute H after scf cycle                 =   F
redata: Mix DM in first SCF step                    =   T
redata: Write Pulay info on disk                    =   F
redata: New DM Occupancy tolerance                  = 0.000000000001
redata: No kicks to SCF
redata: DM Mixing Weight for Kicks                  =     0.5000
redata: Require Harris convergence for SCF          =   F
redata: Harris energy tolerance for SCF             =     0.000100 eV
redata: Require DM convergence for SCF              =   T
redata: DM tolerance for SCF                        =     0.000100
redata: Require EDM convergence for SCF             =   F
redata: EDM tolerance for SCF                       =     0.001000 eV
redata: Require H convergence for SCF               =   T
redata: Hamiltonian tolerance for SCF               =     0.001000 eV
redata: Require (free) Energy convergence for SCF   =   F
redata: (free) Energy tolerance for SCF             =     0.000100 eV
redata: Using Saved Data (generic)                  =   F
redata: Use continuation files for DM               =   F
redata: Neglect nonoverlap interactions             =   F
redata: Method of Calculation                       = Diagonalization
redata: Electronic Temperature                      =   299.9869 K
redata: Fix the spin of the system                  =   F
redata: Dynamics option                             = Single-point calculation
mix.SCF: Pulay mixing                            = Pulay
mix.SCF:    Variant                              = stable
mix.SCF:    History steps                        = 6
mix.SCF:    Linear mixing weight                 =     0.020000
mix.SCF:    Mixing weight                        =     0.020000
mix.SCF:    SVD condition                        = 0.1000E-07
redata: Save all siesta data in one NC              =   F
redata: ***********************************************************************

%block SCF.Mixers
  Pulay
%endblock SCF.Mixers

%block SCF.Mixer.Pulay
  # Mixing method
  method pulay
  variant stable

  # Mixing options
  weight 0.0200
  weight.linear 0.0200
  history 6
%endblock SCF.Mixer.Pulay

DM_history_depth set to one: no extrapolation allowed by default for geometry relaxation
Size of DM history Fstack: 1
Total number of electrons:     8.000000
Total ionic charge:     8.000000

* ProcessorY, Blocksize:    2   3


* Orbital distribution balance (max,min):     3     2

 Kpoints in:            1 . Kpoints trimmed:            1

siesta: k-grid: Number of k-points =     1
siesta: k-grid: Cutoff (effective) =     1.000 Ang
siesta: k-grid: Supercell and displacements
siesta: k-grid:    1   0   0      0.000
siesta: k-grid:    0   1   0      0.000
siesta: k-grid:    0   0   1      0.000

diag: Algorithm                                     = D&C
diag: Parallel over k                               =   F
diag: Use parallel 2D distribution                  =   T
diag: Parallel block-size                           = 3
diag: Parallel distribution                         =     2 x     4
diag: Used triangular part                          = Lower
diag: Absolute tolerance                            =  0.100E-15
diag: Orthogonalization factor                      =  0.100E-05
diag: Memory factor                                 =  1.0000


ts: **************************************************************
ts: Save H and S matrices                           =    F
ts: Save DM and EDM matrices                        =    F
ts: Only save the overlap matrix S                  =    F
ts: **************************************************************

************************ Begin: TS CHECKS AND WARNINGS ************************
************************ End: TS CHECKS AND WARNINGS **************************


                     ====================================
                        Single-point calculation
                     ====================================

outcell: Unit cell vectors (Ang):
        3.000000    0.000000    0.000000
        0.000000    2.000000    0.000000
        0.000000    0.000000   10.000000

outcell: Cell vector modules (Ang)   :    3.000000    2.000000   10.000000
outcell: Cell angles (23,13,12) (deg):     90.0000     90.0000     90.0000
outcell: Cell volume (Ang**3)        :     60.0000
Gamma-point calculation with interaction between periodic images
Some features might not work optimally:
e.g. DM initialization from atomic data
<dSpData1D:S at geom step 0
  <sparsity:sparsity for geom step 0
    nrows_g=23 nrows=3 sparsity=.1304 nnzs=69, refcount: 7>
  <dData1D:(new from dSpData1D) n=69, refcount: 1>
refcount: 1>
new_DM -- step:     1
Initializing Density Matrix...
DM filled with atomic data:
<dSpData2D:DM initialized from atoms
  <sparsity:sparsity for geom step 0
    nrows_g=23 nrows=3 sparsity=.1304 nnzs=69, refcount: 8>
  <dData2D:DM n=69 m=1, refcount: 1>
refcount: 1>
No. of atoms with KB's overlaping orbs in proc 0. Max # of overlaps:       3      95
New grid distribution:   1
           1       1:    8    1:    3    1:    6
           2       1:    8    1:    3    7:   12
           3       1:    8    1:    3   13:   18
           4       1:    8    1:    3   19:   24
           5       1:    8    4:    5    1:    6
           6       1:    8    4:    5    7:   12
           7       1:    8    4:    5   13:   18
           8       1:    8    4:    5   19:   24

InitMesh: MESH =    16 x    10 x    48 =        7680
InitMesh: (bp) =     8 x     5 x    24 =         960
InitMesh: Mesh cutoff (required, used) =    50.000    63.677 Ry
ExtMesh (bp) on 0 =    36 x    31 x    34 =       37944
New grid distribution:   2
           1       5:    8    1:    5    1:   11
           2       1:    4    1:    5   12:   13
           3       5:    8    1:    5   14:   15
           4       1:    4    1:    5   16:   24
           5       1:    4    1:    5    1:   11
           6       5:    8    1:    5   12:   13
           7       1:    4    1:    5   14:   15
           8       5:    8    1:    5   16:   24
New grid distribution:   3
           1       5:    8    1:    5    1:   11
           2       1:    4    1:    5   12:   14
           3       5:    8    1:    5   15:   17
           4       1:    4    1:    5   18:   24
           5       1:    4    1:    5    1:   11
           6       1:    4    1:    5   15:   17
           7       5:    8    1:    5   12:   14
           8       5:    8    1:    5   18:   24
Setting up quadratic distribution...
ExtMesh (bp) on 0 =    32 x    33 x    39 =       41184
PhiOnMesh: Number of (b)points on node 0 =                  220
PhiOnMesh: nlist on node 0 =                 2370

dipole: A dipole layer will be introduced in the vacuum
dipole: region to compensate the system dipole
Dipole moment in unit cell =      -0.0000      -0.0000       0.0021 D
Electric field for dipole correction =     0.000000     0.000000    -0.001309 eV/Ang/e

stepf: Fermi-Dirac step function

siesta: Program's energy decomposition (eV):
siesta: Ebs     =      -118.172995
siesta: Eions   =       815.854478
siesta: Ena     =       174.247460
siesta: Ekin    =       349.875634
siesta: Enl     =       -59.196683
siesta: Eso     =         0.000000
siesta: Edftu   =         0.000000
siesta: DEna    =        -4.072329
siesta: DUscf   =         0.285472
siesta: DUext   =         0.000000
siesta: Exc     =      -112.600051
siesta: eta*DQ  =         0.000000
siesta: Emadel  =         0.000000
siesta: Emeta   =         0.000000
siesta: Emolmec =         0.000000
siesta: Ekinion =         0.000000
siesta: Eharris =      -461.848972
siesta: Etot    =      -467.314977
siesta: FreeEng =      -467.319804

        iscf     Eharris(eV)        E_KS(eV)     FreeEng(eV)     dDmax    Ef(eV) dHmax(eV)
   scf:    1     -461.848972     -467.314977     -467.319804  1.343778 -3.597078 32.192116
timer: Routine,Calls,Time,% = IterSCF        1       0.011   0.87
Dipole moment in unit cell =      -0.0000      -0.0000       0.0347 D
Electric field for dipole correction =     0.000000     0.000000    -0.021757 eV/Ang/e
   scf:    2     -461.756756     -467.204897     -467.237679  1.281741 -3.520453  0.153956
Dipole moment in unit cell =      -0.0000      -0.0000       0.1191 D
Electric field for dipole correction =     0.000000     0.000000    -0.074805 eV/Ang/e
   scf:    3     -462.024177     -466.744804     -466.753298  1.898475 -3.326895  0.384679
Dipole moment in unit cell =      -0.0000      -0.0000       1.1935 D
Electric field for dipole correction =     0.000000     0.000000    -0.749383 eV/Ang/e
   scf:    4     -470.766753     -462.815517     -462.815517  2.518735 -1.659587  5.212921
Dipole moment in unit cell =      -0.0000      -0.0000       1.6845 D
Electric field for dipole correction =     0.000000     0.000000    -1.057683 eV/Ang/e
   scf:    5     -476.026834     -460.478883     -460.478883  2.799308 -0.476092  2.473245
Dipole moment in unit cell =      -0.0000      -0.0000       1.6821 D
Electric field for dipole correction =     0.000000     0.000000    -1.056168 eV/Ang/e
   scf:    6     -476.586812     -460.310184     -460.310184  2.875607 -0.374276  0.289192
Dipole moment in unit cell =      -0.0000      -0.0000       1.6519 D
Electric field for dipole correction =     0.000000     0.000000    -1.037203 eV/Ang/e
   scf:    7     -475.892363     -460.570764     -460.570764  2.810751 -0.510714  0.337008
Dipole moment in unit cell =      -0.0000      -0.0000       1.3482 D
Electric field for dipole correction =     0.000000     0.000000    -0.846544 eV/Ang/e
   scf:    8     -469.121873     -463.007197     -463.007197  2.155787 -1.932275  3.376430
Dipole moment in unit cell =       0.0000       0.0000      -0.0071 D
Electric field for dipole correction =    -0.000000    -0.000000     0.004475 eV/Ang/e
   scf:    9     -468.376237     -463.919055     -463.919055  1.983891 -7.335724 10.699639
Dipole moment in unit cell =      -0.0000      -0.0000       0.1730 D
Electric field for dipole correction =     0.000000     0.000000    -0.108626 eV/Ang/e
   scf:   10     -465.146745     -464.275307     -464.275307  1.639015 -6.081973  2.286928
Dipole moment in unit cell =      -0.0000      -0.0000       0.6721 D
Electric field for dipole correction =     0.000000     0.000000    -0.422018 eV/Ang/e
   scf:   11     -467.518576     -461.959306     -461.959306  2.458274 -2.408762  7.711020
Dipole moment in unit cell =       0.0000       0.0000      -0.5205 D
Electric field for dipole correction =    -0.000000    -0.000000     0.326810 eV/Ang/e
   scf:   12     -465.479055     -463.808872     -463.808872  1.336573 -6.839597  8.667421
Dipole moment in unit cell =       0.0000       0.0000      -0.4826 D
Electric field for dipole correction =    -0.000000    -0.000000     0.303038 eV/Ang/e
   scf:   13     -464.852912     -463.830516     -463.830516  1.267782 -6.560340  0.536132
Dipole moment in unit cell =      -0.0000      -0.0000       0.1476 D
Electric field for dipole correction =     0.000000     0.000000    -0.092687 eV/Ang/e
   scf:   14     -463.550867     -462.608749     -462.608749  2.217362 -2.765286  5.713834
Dipole moment in unit cell =       0.0000       0.0000      -0.0109 D
Electric field for dipole correction =    -0.000000    -0.000000     0.006828 eV/Ang/e
   scf:   15     -461.864579     -463.377816     -463.377864  0.965365 -3.700287  1.914526
Dipole moment in unit cell =       0.0000       0.0000      -0.0448 D
Electric field for dipole correction =    -0.000000    -0.000000     0.028156 eV/Ang/e
   scf:   16     -461.929014     -463.278139     -463.278145  0.954922 -3.771338  0.140296
Dipole moment in unit cell =       0.0000       0.0000      -0.0225 D
Electric field for dipole correction =    -0.000000    -0.000000     0.014129 eV/Ang/e
   scf:   17     -461.805897     -463.122441     -463.122755  0.925181 -3.652568  0.248871
Dipole moment in unit cell =      -0.0000      -0.0000       0.0676 D
Electric field for dipole correction =     0.000000     0.000000    -0.042443 eV/Ang/e
   scf:   18     -461.813491     -462.835389     -462.858612  1.829883 -3.346566  0.626109
Dipole moment in unit cell =       0.0000       0.0000      -0.1377 D
Electric field for dipole correction =    -0.000000    -0.000000     0.086431 eV/Ang/e
   scf:   19     -462.735062     -463.112472     -463.112472  1.003372 -4.328924  2.222767
Dipole moment in unit cell =      -0.0000      -0.0000       0.1547 D
Electric field for dipole correction =     0.000000     0.000000    -0.097139 eV/Ang/e
   scf:   20     -461.791022     -462.302927     -462.303306  0.848647 -3.655256  1.579874
Dipole moment in unit cell =      -0.0000      -0.0000       0.2848 D
Electric field for dipole correction =     0.000000     0.000000    -0.178826 eV/Ang/e
   scf:   21     -461.843293     -461.769958     -461.787113  1.919498 -3.344095  0.630753
Dipole moment in unit cell =      -0.0000      -0.0000       0.1847 D
Electric field for dipole correction =     0.000000     0.000000    -0.115953 eV/Ang/e
   scf:   22     -461.739304     -462.100632     -462.102593  0.815232 -3.603807  0.526434
Dipole moment in unit cell =      -0.0000      -0.0000       0.0833 D
Electric field for dipole correction =     0.000000     0.000000    -0.052298 eV/Ang/e
   scf:   23     -461.837921     -461.802839     -461.802905  0.774870 -3.709322  0.265361
Dipole moment in unit cell =      -0.0000      -0.0000       0.0914 D
Electric field for dipole correction =     0.000000     0.000000    -0.057365 eV/Ang/e
   scf:   24     -461.801852     -461.750697     -461.750909  0.765793 -3.673194  0.074247
Dipole moment in unit cell =      -0.0000      -0.0000       0.0882 D
Electric field for dipole correction =     0.000000     0.000000    -0.055368 eV/Ang/e
   scf:   25     -461.799548     -461.690642     -461.690870  0.760589 -3.671802  0.009978
Dipole moment in unit cell =      -0.0000      -0.0000       0.0991 D
Electric field for dipole correction =     0.000000     0.000000    -0.062232 eV/Ang/e
   scf:   26     -461.780444     -461.676122     -461.676546  0.757509 -3.652250  0.039791
Dipole moment in unit cell =      -0.0000      -0.0000       0.0986 D
Electric field for dipole correction =     0.000000     0.000000    -0.061881 eV/Ang/e
   scf:   27     -461.781635     -461.675275     -461.675682  0.758283 -3.653825  0.003160
Dipole moment in unit cell =      -0.0000      -0.0000       0.2739 D
Electric field for dipole correction =     0.000000     0.000000    -0.172009 eV/Ang/e
   scf:   28     -464.323154     -461.826014     -461.826014  2.931116 -2.109121  2.612168
Dipole moment in unit cell =      -0.0000      -0.0000       0.1315 D
Electric field for dipole correction =     0.000000     0.000000    -0.082555 eV/Ang/e
   scf:   29     -461.624422     -461.558035     -461.587659  0.519548 -3.511216  2.375954
Dipole moment in unit cell =      -0.0000      -0.0000       0.1373 D
Electric field for dipole correction =     0.000000     0.000000    -0.086182 eV/Ang/e
   scf:   30     -461.595342     -461.468029     -461.516807  0.240650 -3.487910  0.049175
Dipole moment in unit cell =      -0.0000      -0.0000       0.0901 D
Electric field for dipole correction =     0.000000     0.000000    -0.056547 eV/Ang/e
   scf:   31     -461.764962     -461.418737     -461.419440  0.757591 -3.651128  0.329957
Dipole moment in unit cell =      -0.0000      -0.0000       0.0691 D
Electric field for dipole correction =     0.000000     0.000000    -0.043384 eV/Ang/e
   scf:   32     -461.791792     -461.641383     -461.641680  0.762795 -3.669312  0.052606
Dipole moment in unit cell =      -0.0000      -0.0000       0.1076 D
Electric field for dipole correction =     0.000000     0.000000    -0.067559 eV/Ang/e
   scf:   33     -461.742279     -461.636688     -461.638151  0.713449 -3.597403  0.165022
Dipole moment in unit cell =      -0.0000      -0.0000       0.0730 D
Electric field for dipole correction =     0.000000     0.000000    -0.045834 eV/Ang/e
   scf:   34     -461.663472     -461.612725     -461.626748  0.619473 -3.519168  0.164552
Dipole moment in unit cell =      -0.0000      -0.0000       0.0568 D
Electric field for dipole correction =     0.000000     0.000000    -0.035658 eV/Ang/e
   scf:   35     -461.909383     -461.447581     -461.447587  0.813697 -3.813393  0.552418
Dipole moment in unit cell =      -0.0000      -0.0000       0.1750 D
Electric field for dipole correction =     0.000000     0.000000    -0.109872 eV/Ang/e
   scf:   36     -461.588297     -461.995850     -462.052596  0.098709 -3.458694  0.683561
Dipole moment in unit cell =      -0.0000      -0.0000       0.1785 D
Electric field for dipole correction =     0.000000     0.000000    -0.112077 eV/Ang/e
   scf:   37     -461.581337     -462.001521     -462.069412  0.268594 -3.438516  0.038191
Dipole moment in unit cell =      -0.0000      -0.0000       0.0769 D
Electric field for dipole correction =     0.000000     0.000000    -0.048256 eV/Ang/e
   scf:   38     -461.809231     -461.764085     -461.764252  0.764769 -3.683707  0.488464
Dipole moment in unit cell =      -0.0000      -0.0000       0.0750 D
Electric field for dipole correction =     0.000000     0.000000    -0.047120 eV/Ang/e
   scf:   39     -461.799948     -461.787242     -461.787467  0.755912 -3.673932  0.020203
Dipole moment in unit cell =      -0.0000      -0.0000       0.0813 D
Electric field for dipole correction =     0.000000     0.000000    -0.051038 eV/Ang/e
   scf:   40     -461.807192     -461.766831     -461.767009  0.757805 -3.678303  0.013401
Dipole moment in unit cell =      -0.0000      -0.0000       0.0751 D
Electric field for dipole correction =     0.000000     0.000000    -0.047175 eV/Ang/e
   scf:   41     -461.788806     -461.764135     -461.764459  0.749165 -3.658772  0.040058
Dipole moment in unit cell =      -0.0000      -0.0000       0.0734 D
Electric field for dipole correction =     0.000000     0.000000    -0.046056 eV/Ang/e
   scf:   42     -461.822307     -461.738487     -461.738596  0.768264 -3.699603  0.076600
Dipole moment in unit cell =      -0.0000      -0.0000       0.1338 D
Electric field for dipole correction =     0.000000     0.000000    -0.084038 eV/Ang/e
   scf:   43     -461.636081     -461.883908     -461.907548  0.546643 -3.502194  0.388383
Dipole moment in unit cell =      -0.0000      -0.0000       0.2478 D
Electric field for dipole correction =     0.000000     0.000000    -0.155603 eV/Ang/e
   scf:   44     -462.778516     -462.142875     -462.142876  2.396761 -2.948440  1.060661
Dipole moment in unit cell =      -0.0000      -0.0000       0.0923 D
Electric field for dipole correction =     0.000000     0.000000    -0.057974 eV/Ang/e
   scf:   45     -461.723407     -461.646717     -461.649291  0.726743 -3.592954  1.236314
Dipole moment in unit cell =      -0.0000      -0.0000       0.0947 D
Electric field for dipole correction =     0.000000     0.000000    -0.059430 eV/Ang/e
   scf:   46     -461.687778     -461.678800     -461.685977  0.680811 -3.556044  0.074571
Dipole moment in unit cell =      -0.0000      -0.0000       0.1092 D
Electric field for dipole correction =     0.000000     0.000000    -0.068560 eV/Ang/e
   scf:   47     -461.703875     -461.665761     -461.670329  0.713809 -3.566732  0.029311
Dipole moment in unit cell =      -0.0000      -0.0000       0.0997 D
Electric field for dipole correction =     0.000000     0.000000    -0.062609 eV/Ang/e
   scf:   48     -461.726135     -461.668811     -461.671165  0.749365 -3.598584  0.067451
Dipole moment in unit cell =      -0.0000      -0.0000       0.1001 D
Electric field for dipole correction =     0.000000     0.000000    -0.062823 eV/Ang/e
   scf:   49     -461.720599     -461.674719     -461.677504  0.746225 -3.592181  0.012366
Dipole moment in unit cell =      -0.0000      -0.0000       0.0984 D
Electric field for dipole correction =     0.000000     0.000000    -0.061802 eV/Ang/e
   scf:   50     -461.716362     -461.671017     -461.674185  0.742768 -3.587320  0.009440
Dipole moment in unit cell =      -0.0000      -0.0000       0.1994 D
Electric field for dipole correction =     0.000000     0.000000    -0.125196 eV/Ang/e
   scf:   51     -462.873546     -461.958351     -461.958352  2.518713 -2.906110  1.296422
Dipole moment in unit cell =      -0.0000      -0.0000       0.1047 D
Electric field for dipole correction =     0.000000     0.000000    -0.065737 eV/Ang/e
   scf:   52     -461.737448     -461.588378     -461.590043  0.779620 -3.619437  1.350813
Dipole moment in unit cell =      -0.0000      -0.0000       0.1005 D
Electric field for dipole correction =     0.000000     0.000000    -0.063133 eV/Ang/e
   scf:   53     -461.632294     -461.689684     -461.715383  0.522352 -3.513478  0.211073
Dipole moment in unit cell =      -0.0000      -0.0000       0.1288 D
Electric field for dipole correction =     0.000000     0.000000    -0.080901 eV/Ang/e
   scf:   54     -461.655700     -461.613420     -461.629186  0.633185 -3.518194  0.034350
Dipole moment in unit cell =      -0.0000      -0.0000       0.1044 D
Electric field for dipole correction =     0.000000     0.000000    -0.065551 eV/Ang/e
   scf:   55     -461.708949     -461.621555     -461.625508  0.765444 -3.586114  0.146107
Dipole moment in unit cell =      -0.0000      -0.0000       0.1131 D
Electric field for dipole correction =     0.000000     0.000000    -0.070984 eV/Ang/e
   scf:   56     -461.698553     -461.664441     -461.669756  0.756270 -3.573931  0.024851
Dipole moment in unit cell =      -0.0000      -0.0000       0.1069 D
Electric field for dipole correction =     0.000000     0.000000    -0.067135 eV/Ang/e
   scf:   57     -461.721854     -461.546839     -461.549536  0.783638 -3.606797  0.056946
Dipole moment in unit cell =      -0.0000      -0.0000       0.1219 D
Electric field for dipole correction =     0.000000     0.000000    -0.076515 eV/Ang/e
   scf:   58     -461.966017     -461.889704     -461.895135  2.297391 -3.253629  0.655896
Dipole moment in unit cell =      -0.0000      -0.0000       0.1032 D
Electric field for dipole correction =     0.000000     0.000000    -0.064786 eV/Ang/e
   scf:   59     -461.638634     -461.848320     -461.871009  0.572391 -3.505220  0.472729
Dipole moment in unit cell =      -0.0000      -0.0000       0.1034 D
Electric field for dipole correction =     0.000000     0.000000    -0.064904 eV/Ang/e
   scf:   60     -461.664256     -461.838197     -461.851167  0.676175 -3.527442  0.045584
Dipole moment in unit cell =      -0.0000      -0.0000       0.1053 D
Electric field for dipole correction =     0.000000     0.000000    -0.066106 eV/Ang/e
   scf:   61     -461.648244     -461.836841     -461.855443  0.609429 -3.506128  0.042278
Dipole moment in unit cell =      -0.0000      -0.0000       0.1087 D
Electric field for dipole correction =     0.000000     0.000000    -0.068231 eV/Ang/e
   scf:   62     -461.648588     -461.837934     -461.856356  0.630542 -3.522073  0.035624
Dipole moment in unit cell =      -0.0000      -0.0000       0.1332 D
Electric field for dipole correction =     0.000000     0.000000    -0.083607 eV/Ang/e
   scf:   63     -461.601998     -461.832833     -461.876484  0.310369 -3.486960  0.079397
Dipole moment in unit cell =      -0.0000      -0.0000       0.1211 D
Electric field for dipole correction =     0.000000     0.000000    -0.076049 eV/Ang/e
   scf:   64     -461.665328     -461.742982     -461.755672  0.707236 -3.548551  0.117035
Dipole moment in unit cell =      -0.0000      -0.0000       0.1454 D
Electric field for dipole correction =     0.000000     0.000000    -0.091309 eV/Ang/e
   scf:   65     -461.584003     -461.930740     -462.002191  0.633522 -3.433009  0.222245
Dipole moment in unit cell =      -0.0000      -0.0000       0.1227 D
Electric field for dipole correction =     0.000000     0.000000    -0.077068 eV/Ang/e
   scf:   66     -461.589102     -461.912892     -461.966956  0.091951 -3.468427  0.079779
Dipole moment in unit cell =      -0.0000      -0.0000       0.0932 D
Electric field for dipole correction =     0.000000     0.000000    -0.058529 eV/Ang/e
   scf:   67     -461.676809     -461.804202     -461.813743  0.673991 -3.561667  0.173360
Dipole moment in unit cell =      -0.0000      -0.0000       0.1155 D
Electric field for dipole correction =     0.000000     0.000000    -0.072507 eV/Ang/e
   scf:   68     -461.697389     -461.674126     -461.679594  0.686417 -3.592540  0.053224
Dipole moment in unit cell =      -0.0000      -0.0000       0.0893 D
Electric field for dipole correction =     0.000000     0.000000    -0.056067 eV/Ang/e
   scf:   69     -461.793190     -461.618874     -461.619155  0.762846 -3.696226  0.205958
Dipole moment in unit cell =      -0.0000      -0.0000       0.1017 D
Electric field for dipole correction =     0.000000     0.000000    -0.063874 eV/Ang/e
   scf:   70     -461.765668     -461.676361     -461.677042  0.743177 -3.661964  0.067312
Dipole moment in unit cell =      -0.0000      -0.0000       0.1027 D
Electric field for dipole correction =     0.000000     0.000000    -0.064455 eV/Ang/e
   scf:   71     -461.761212     -461.648050     -461.648836  0.742473 -3.660728  0.006343
Dipole moment in unit cell =      -0.0000      -0.0000       0.0943 D
Electric field for dipole correction =     0.000000     0.000000    -0.059239 eV/Ang/e
   scf:   72     -461.811405     -461.649494     -461.649650  0.757832 -3.694314  0.090788
Dipole moment in unit cell =      -0.0000      -0.0000       0.0986 D
Electric field for dipole correction =     0.000000     0.000000    -0.061888 eV/Ang/e
   scf:   73     -462.259140     -462.003682     -462.003974  2.491076 -3.151570  1.049415
Dipole moment in unit cell =      -0.0000      -0.0000       0.0515 D
Electric field for dipole correction =     0.000000     0.000000    -0.032347 eV/Ang/e
   scf:   74     -461.862056     -461.548931     -461.548961  0.765101 -3.762352  1.167765
Dipole moment in unit cell =      -0.0000      -0.0000       0.0762 D
Electric field for dipole correction =     0.000000     0.000000    -0.047876 eV/Ang/e
   scf:   75     -461.785473     -461.734925     -461.735285  0.777924 -3.667506  0.175498
Dipole moment in unit cell =      -0.0000      -0.0000       0.1078 D
Electric field for dipole correction =     0.000000     0.000000    -0.067688 eV/Ang/e
   scf:   76     -461.653919     -461.767539     -461.783864  0.573958 -3.524462  0.277591
Dipole moment in unit cell =      -0.0000      -0.0000       0.0620 D
Electric field for dipole correction =     0.000000     0.000000    -0.038947 eV/Ang/e
   scf:   77     -461.851107     -461.730201     -461.730245  0.807615 -3.743918  0.422769
Dipole moment in unit cell =      -0.0000      -0.0000       0.0567 D
Electric field for dipole correction =     0.000000     0.000000    -0.035625 eV/Ang/e
   scf:   78     -461.898589     -461.645696     -461.645705  0.830434 -3.780023  0.087495
Dipole moment in unit cell =      -0.0000      -0.0000       0.0388 D
Electric field for dipole correction =     0.000000     0.000000    -0.024356 eV/Ang/e
   scf:   79     -461.890023     -461.714416     -461.714429  0.804761 -3.765740  0.026402
Dipole moment in unit cell =      -0.0000      -0.0000       0.2299 D
Electric field for dipole correction =     0.000000     0.000000    -0.144329 eV/Ang/e
   scf:   80     -461.785094     -461.840749     -461.865917  2.080868 -3.314659  0.928355
Dipole moment in unit cell =      -0.0000      -0.0000       0.1316 D
Electric field for dipole correction =     0.000000     0.000000    -0.082645 eV/Ang/e
   scf:   81     -461.671256     -461.771896     -461.782748  0.636658 -3.545170  0.490321
Dipole moment in unit cell =      -0.0000      -0.0000       0.1144 D
Electric field for dipole correction =     0.000000     0.000000    -0.071812 eV/Ang/e
   scf:   82     -461.689311     -461.747930     -461.754729  0.678311 -3.573013  0.064103
Dipole moment in unit cell =      -0.0000      -0.0000       0.1133 D
Electric field for dipole correction =     0.000000     0.000000    -0.071157 eV/Ang/e
   scf:   83     -461.693081     -461.711863     -461.718008  0.680917 -3.582624  0.015220
Dipole moment in unit cell =      -0.0000      -0.0000       0.1107 D
Electric field for dipole correction =     0.000000     0.000000    -0.069491 eV/Ang/e
   scf:   84     -461.706055     -461.670507     -461.674762  0.689684 -3.596338  0.027528
Dipole moment in unit cell =      -0.0000      -0.0000       0.1031 D
Electric field for dipole correction =     0.000000     0.000000    -0.064739 eV/Ang/e
   scf:   85     -461.724989     -461.680432     -461.682863  0.704044 -3.620952  0.046522
Dipole moment in unit cell =      -0.0000      -0.0000       0.1121 D
Electric field for dipole correction =     0.000000     0.000000    -0.070402 eV/Ang/e
   scf:   86     -461.674348     -461.712250     -461.722304  0.634449 -3.565210  0.107247
Dipole moment in unit cell =      -0.0000      -0.0000       0.2318 D
Electric field for dipole correction =     0.000000     0.000000    -0.145521 eV/Ang/e
   scf:   87     -462.494490     -462.026258     -462.026279  2.407331 -3.084736  0.922638
Dipole moment in unit cell =      -0.0000      -0.0000       0.1505 D
Electric field for dipole correction =     0.000000     0.000000    -0.094472 eV/Ang/e
   scf:   88     -461.636689     -461.655545     -461.679163  0.547490 -3.533055  0.857323
Dipole moment in unit cell =      -0.0000      -0.0000       0.1542 D
Electric field for dipole correction =     0.000000     0.000000    -0.096829 eV/Ang/e
   scf:   89     -461.634354     -461.673926     -461.698625  0.525990 -3.525075  0.019761
Dipole moment in unit cell =      -0.0000      -0.0000       0.1360 D
Electric field for dipole correction =     0.000000     0.000000    -0.085412 eV/Ang/e
   scf:   90     -461.672455     -461.625916     -461.636583  0.670469 -3.571980  0.094914
Dipole moment in unit cell =      -0.0000      -0.0000       0.1252 D
Electric field for dipole correction =     0.000000     0.000000    -0.078613 eV/Ang/e
   scf:   91     -461.678931     -461.730139     -461.739194  0.675073 -3.575418  0.017203
Dipole moment in unit cell =      -0.0000      -0.0000       0.1565 D
Electric field for dipole correction =     0.000000     0.000000    -0.098281 eV/Ang/e
   scf:   92     -461.583340     -461.701405     -461.762207  0.074988 -3.485774  0.180117
Dipole moment in unit cell =      -0.0000      -0.0000       0.1019 D
Electric field for dipole correction =     0.000000     0.000000    -0.064010 eV/Ang/e
   scf:   93     -461.741130     -461.698812     -461.700294  0.688595 -3.642930  0.312902
Dipole moment in unit cell =      -0.0000      -0.0000       0.1025 D
Electric field for dipole correction =     0.000000     0.000000    -0.064357 eV/Ang/e
   scf:   94     -461.729650     -461.714103     -461.716206  0.715559 -3.617774  0.036178
Dipole moment in unit cell =      -0.0000      -0.0000       0.1149 D
Electric field for dipole correction =     0.000000     0.000000    -0.072166 eV/Ang/e
   scf:   95     -461.667058     -461.759385     -461.771409  0.617944 -3.555509  0.126441
Dipole moment in unit cell =      -0.0000      -0.0000       0.0987 D
Electric field for dipole correction =     0.000000     0.000000    -0.061978 eV/Ang/e
   scf:   96     -461.778515     -461.662667     -461.663118  0.742345 -3.674344  0.236011
Dipole moment in unit cell =      -0.0000      -0.0000       0.1051 D
Electric field for dipole correction =     0.000000     0.000000    -0.065980 eV/Ang/e
   scf:   97     -461.766351     -461.569454     -461.570124  0.733526 -3.676085  0.022140
Dipole moment in unit cell =      -0.0000      -0.0000       0.1043 D
Electric field for dipole correction =     0.000000     0.000000    -0.065503 eV/Ang/e
   scf:   98     -461.746664     -461.676535     -461.677790  0.739404 -3.651250  0.047675
Dipole moment in unit cell =      -0.0000      -0.0000       0.1983 D
Electric field for dipole correction =     0.000000     0.000000    -0.124513 eV/Ang/e
   scf:   99     -461.598061     -461.787181     -461.857933  0.936418 -3.422247  0.456305
Dipole moment in unit cell =      -0.0000      -0.0000       0.1421 D
Electric field for dipole correction =     0.000000     0.000000    -0.089199 eV/Ang/e
   scf:  100     -461.670810     -461.687031     -461.698105  0.641264 -3.558118  0.267816
Dipole moment in unit cell =      -0.0000      -0.0000       0.1087 D
Electric field for dipole correction =     0.000000     0.000000    -0.068221 eV/Ang/e
   scf:  101     -461.740319     -461.663966     -461.665487  0.713675 -3.640656  0.158248
Dipole moment in unit cell =      -0.0000      -0.0000       0.1098 D
Electric field for dipole correction =     0.000000     0.000000    -0.068927 eV/Ang/e
   scf:  102     -461.762080     -461.629931     -461.630699  0.734908 -3.664505  0.047668
Dipole moment in unit cell =      -0.0000      -0.0000       0.1161 D
Electric field for dipole correction =     0.000000     0.000000    -0.072927 eV/Ang/e
   scf:  103     -461.723556     -461.646103     -461.648670  0.710010 -3.628081  0.079042
Dipole moment in unit cell =      -0.0000      -0.0000       0.1228 D
Electric field for dipole correction =     0.000000     0.000000    -0.077121 eV/Ang/e
   scf:  104     -461.715352     -461.701173     -461.704461  0.703938 -3.612478  0.029260
Dipole moment in unit cell =      -0.0000      -0.0000       0.1170 D
Electric field for dipole correction =     0.000000     0.000000    -0.073451 eV/Ang/e
   scf:  105     -461.740871     -461.614831     -461.616331  0.711263 -3.641911  0.057932
Dipole moment in unit cell =      -0.0000      -0.0000       0.2909 D
Electric field for dipole correction =     0.000000     0.000000    -0.182636 eV/Ang/e
   scf:  106     -463.059811     -462.187232     -462.187232  2.483489 -2.827468  1.516184
Dipole moment in unit cell =      -0.0000      -0.0000       0.1438 D
Electric field for dipole correction =     0.000000     0.000000    -0.090272 eV/Ang/e
   scf:  107     -461.632124     -461.610408     -461.636249  0.533322 -3.537063  1.303318
Dipole moment in unit cell =      -0.0000      -0.0000       0.1425 D
Electric field for dipole correction =     0.000000     0.000000    -0.089449 eV/Ang/e
   scf:  108     -461.607897     -461.684987     -461.724478  0.353393 -3.500069  0.061101
Dipole moment in unit cell =      -0.0000      -0.0000       0.1599 D
Electric field for dipole correction =     0.000000     0.000000    -0.100422 eV/Ang/e
   scf:  109     -461.603434     -461.729009     -461.798525  1.020646 -3.428727  0.140938
Dipole moment in unit cell =      -0.0000      -0.0000       0.1058 D
Electric field for dipole correction =     0.000000     0.000000    -0.066400 eV/Ang/e
   scf:  110     -461.752796     -461.708157     -461.709181  0.704977 -3.644572  0.425856
Dipole moment in unit cell =      -0.0000      -0.0000       0.0957 D
Electric field for dipole correction =     0.000000     0.000000    -0.060107 eV/Ang/e
   scf:  111     -461.768070     -461.716525     -461.717153  0.710550 -3.661861  0.037133
Dipole moment in unit cell =      -0.0000      -0.0000       0.0827 D
Electric field for dipole correction =     0.000000     0.000000    -0.051900 eV/Ang/e
   scf:  112     -461.778674     -461.708883     -461.709330  0.719045 -3.675197  0.035619
Dipole moment in unit cell =      -0.0000      -0.0000       0.1065 D
Electric field for dipole correction =     0.000000     0.000000    -0.066870 eV/Ang/e
   scf:  113     -461.697785     -461.698942     -461.704342  0.679359 -3.589456  0.172372
Dipole moment in unit cell =      -0.0000      -0.0000       0.0908 D
Electric field for dipole correction =     0.000000     0.000000    -0.057030 eV/Ang/e
   scf:  114     -461.766445     -461.686357     -461.687017  0.732146 -3.656517  0.141765
Dipole moment in unit cell =      -0.0000      -0.0000       0.0923 D
Electric field for dipole correction =     0.000000     0.000000    -0.057924 eV/Ang/e
   scf:  115     -461.755141     -461.681716     -461.682662  0.723652 -3.645011  0.023876
Dipole moment in unit cell =      -0.0000      -0.0000       0.2937 D
Electric field for dipole correction =     0.000000     0.000000    -0.184414 eV/Ang/e
   scf:  116     -463.745414     -462.236441     -462.236441  2.661110 -2.611893  1.974327
Dipole moment in unit cell =      -0.0000      -0.0000       0.1638 D
Electric field for dipole correction =     0.000000     0.000000    -0.102844 eV/Ang/e
   scf:  117     -461.774358     -461.801178     -461.827980  1.944831 -3.352342  1.404805
Dipole moment in unit cell =      -0.0000      -0.0000       0.0680 D
Electric field for dipole correction =     0.000000     0.000000    -0.042685 eV/Ang/e
   scf:  118     -461.831771     -461.676973     -461.677053  0.745571 -3.728952  0.735275
Dipole moment in unit cell =      -0.0000      -0.0000       0.0707 D
Electric field for dipole correction =     0.000000     0.000000    -0.044364 eV/Ang/e
   scf:  119     -461.813649     -461.666309     -461.666454  0.747645 -3.711084  0.037560
Dipole moment in unit cell =      -0.0000      -0.0000       0.0676 D
Electric field for dipole correction =     0.000000     0.000000    -0.042444 eV/Ang/e
   scf:  120     -461.840396     -461.664459     -461.664520  0.751421 -3.736302  0.054545
Dipole moment in unit cell =      -0.0000      -0.0000       0.0758 D
Electric field for dipole correction =     0.000000     0.000000    -0.047618 eV/Ang/e
   scf:  121     -461.825660     -461.697390     -461.697488  0.749435 -3.719765  0.032084
Dipole moment in unit cell =      -0.0000      -0.0000       0.0680 D
Electric field for dipole correction =     0.000000     0.000000    -0.042690 eV/Ang/e
   scf:  122     -461.840325     -461.677190     -461.677251  0.746363 -3.737628  0.033079
Dipole moment in unit cell =      -0.0000      -0.0000       0.0990 D
Electric field for dipole correction =     0.000000     0.000000    -0.062143 eV/Ang/e
   scf:  123     -461.743090     -461.671120     -461.672507  0.728007 -3.635364  0.206866
Dipole moment in unit cell =      -0.0000      -0.0000       0.3452 D
Electric field for dipole correction =     0.000000     0.000000    -0.216770 eV/Ang/e
   scf:  124     -465.037764     -462.237923     -462.237923  3.037772 -2.106313  2.867991
Dipole moment in unit cell =      -0.0000      -0.0000       0.1833 D
Electric field for dipole correction =     0.000000     0.000000    -0.115064 eV/Ang/e
   scf:  125     -462.212511     -461.792445     -461.792878  2.234962 -3.190483  2.006904
Dipole moment in unit cell =      -0.0000      -0.0000       0.0737 D
Electric field for dipole correction =     0.000000     0.000000    -0.046300 eV/Ang/e
   scf:  126     -461.814724     -461.661328     -461.661467  0.752255 -3.712926  1.015532
Dipole moment in unit cell =      -0.0000      -0.0000       0.0721 D
Electric field for dipole correction =     0.000000     0.000000    -0.045300 eV/Ang/e
   scf:  127     -461.827756     -461.663634     -461.663726  0.755157 -3.720859  0.022960
Dipole moment in unit cell =      -0.0000      -0.0000       0.0764 D
Electric field for dipole correction =     0.000000     0.000000    -0.047941 eV/Ang/e
   scf:  128     -461.825417     -461.675798     -461.675897  0.752160 -3.721907  0.009975
Dipole moment in unit cell =      -0.0000      -0.0000       0.0896 D
Electric field for dipole correction =     0.000000     0.000000    -0.056277 eV/Ang/e
   scf:  129     -461.784022     -461.687533     -461.687909  0.754727 -3.675639  0.090694
Dipole moment in unit cell =      -0.0000      -0.0000       0.0768 D
Electric field for dipole correction =     0.000000     0.000000    -0.048222 eV/Ang/e
   scf:  130     -461.828012     -461.648058     -461.648148  0.758893 -3.727984  0.099322
Dipole moment in unit cell =      -0.0000      -0.0000       0.1073 D
Electric field for dipole correction =     0.000000     0.000000    -0.067365 eV/Ang/e
   scf:  131     -461.708362     -461.662714     -461.666706  0.715051 -3.598908  0.258132
Dipole moment in unit cell =      -0.0000      -0.0000       0.2922 D
Electric field for dipole correction =     0.000000     0.000000    -0.183473 eV/Ang/e
   scf:  132     -464.162848     -462.119934     -462.119934  2.835972 -2.405346  2.183344
Dipole moment in unit cell =      -0.0000      -0.0000       0.1533 D
Electric field for dipole correction =     0.000000     0.000000    -0.096256 eV/Ang/e
   scf:  133     -461.650187     -461.642381     -461.699875  1.410229 -3.413868  1.813238
Dipole moment in unit cell =      -0.0000      -0.0000       0.0713 D
Electric field for dipole correction =     0.000000     0.000000    -0.044798 eV/Ang/e
   scf:  134     -461.835364     -461.662629     -461.662701  0.748921 -3.733062  0.641284
Dipole moment in unit cell =      -0.0000      -0.0000       0.0716 D
Electric field for dipole correction =     0.000000     0.000000    -0.044943 eV/Ang/e
   scf:  135     -461.822861     -461.648202     -461.648310  0.748620 -3.718208  0.028068
Dipole moment in unit cell =      -0.0000      -0.0000       0.0721 D
Electric field for dipole correction =     0.000000     0.000000    -0.045268 eV/Ang/e
   scf:  136     -461.831591     -461.668782     -461.668863  0.748747 -3.727618  0.018728
Dipole moment in unit cell =      -0.0000      -0.0000       0.0770 D
Electric field for dipole correction =     0.000000     0.000000    -0.048354 eV/Ang/e
   scf:  137     -461.816014     -461.632316     -461.632450  0.757504 -3.714893  0.029639
Dipole moment in unit cell =      -0.0000      -0.0000       0.0727 D
Electric field for dipole correction =     0.000000     0.000000    -0.045619 eV/Ang/e
   scf:  138     -461.835195     -461.664345     -461.664417  0.747552 -3.732997  0.038889
Dipole moment in unit cell =      -0.0000      -0.0000       0.0845 D
Electric field for dipole correction =     0.000000     0.000000    -0.053048 eV/Ang/e
   scf:  139     -461.756915     -461.643793     -461.644690  0.729178 -3.650311  0.168022
Dipole moment in unit cell =      -0.0000      -0.0000       0.2617 D
Electric field for dipole correction =     0.000000     0.000000    -0.164298 eV/Ang/e
   scf:  140     -464.838562     -461.984101     -461.984101  3.056479 -2.164366  2.803596
Dipole moment in unit cell =      -0.0000      -0.0000       0.1306 D
Electric field for dipole correction =     0.000000     0.000000    -0.081979 eV/Ang/e
   scf:  141     -461.733010     -461.536111     -461.572017  1.808313 -3.379774  2.265921
Dipole moment in unit cell =      -0.0000      -0.0000       0.0735 D
Electric field for dipole correction =     0.000000     0.000000    -0.046125 eV/Ang/e
   scf:  142     -461.824828     -461.665610     -461.665711  0.754123 -3.717481  0.679360
Dipole moment in unit cell =      -0.0000      -0.0000       0.0760 D
Electric field for dipole correction =     0.000000     0.000000    -0.047704 eV/Ang/e
   scf:  143     -461.816933     -461.662742     -461.662872  0.750442 -3.709097  0.016661
Dipole moment in unit cell =      -0.0000      -0.0000       0.0742 D
Electric field for dipole correction =     0.000000     0.000000    -0.046572 eV/Ang/e
   scf:  144     -461.824116     -461.635208     -461.635311  0.765073 -3.722344  0.027576
Dipole moment in unit cell =      -0.0000      -0.0000       0.0834 D
Electric field for dipole correction =     0.000000     0.000000    -0.052369 eV/Ang/e
   scf:  145     -461.766475     -461.657208     -461.657869  0.746314 -3.650983  0.133042
Dipole moment in unit cell =      -0.0000      -0.0000       0.0716 D
Electric field for dipole correction =     0.000000     0.000000    -0.044951 eV/Ang/e
   scf:  146     -461.835313     -461.646162     -461.646234  0.763853 -3.731124  0.154101
Dipole moment in unit cell =      -0.0000      -0.0000       0.0757 D
Electric field for dipole correction =     0.000000     0.000000    -0.047538 eV/Ang/e
   scf:  147     -461.808873     -461.617791     -461.617960  0.761376 -3.702360  0.057066
Dipole moment in unit cell =      -0.0000      -0.0000       0.2834 D
Electric field for dipole correction =     0.000000     0.000000    -0.177961 eV/Ang/e
   scf:  148     -465.150500     -461.915972     -461.915972  3.143104 -2.006018  3.176219
Dipole moment in unit cell =      -0.0000      -0.0000       0.1232 D
Electric field for dipole correction =     0.000000     0.000000    -0.077355 eV/Ang/e
   scf:  149     -461.916325     -461.350082     -461.358599  2.152421 -3.307045  2.395861
Dipole moment in unit cell =      -0.0000      -0.0000       0.0678 D
Electric field for dipole correction =     0.000000     0.000000    -0.042580 eV/Ang/e
   scf:  150     -461.839632     -461.603574     -461.603637  0.762740 -3.734974  0.845762
Dipole moment in unit cell =      -0.0000      -0.0000       0.0690 D
Electric field for dipole correction =     0.000000     0.000000    -0.043315 eV/Ang/e
   scf:  151     -461.829870     -461.602890     -461.602975  0.759259 -3.726717  0.019004
Dipole moment in unit cell =      -0.0000      -0.0000       0.0682 D
Electric field for dipole correction =     0.000000     0.000000    -0.042800 eV/Ang/e
   scf:  152     -461.836960     -461.588062     -461.588130  0.763174 -3.733512  0.014591
Dipole moment in unit cell =      -0.0000      -0.0000       0.0727 D
Electric field for dipole correction =     0.000000     0.000000    -0.045624 eV/Ang/e
   scf:  153     -461.791522     -461.577851     -461.578147  0.744280 -3.676892  0.105036
Dipole moment in unit cell =      -0.0000      -0.0000       0.0742 D
Electric field for dipole correction =     0.000000     0.000000    -0.046595 eV/Ang/e
   scf:  154     -461.808918     -461.618862     -461.619030  0.759322 -3.701608  0.043250
Dipole moment in unit cell =      -0.0000      -0.0000       0.0778 D
Electric field for dipole correction =     0.000000     0.000000    -0.048873 eV/Ang/e
   scf:  155     -461.777412     -461.578844     -461.579310  0.743162 -3.666852  0.068884
Dipole moment in unit cell =      -0.0000      -0.0000       0.2779 D
Electric field for dipole correction =     0.000000     0.000000    -0.174503 eV/Ang/e
   scf:  156     -464.764741     -461.761132     -461.761132  3.054313 -2.155375  2.811458
Dipole moment in unit cell =      -0.0000      -0.0000       0.1527 D
Electric field for dipole correction =     0.000000     0.000000    -0.095868 eV/Ang/e
   scf:  157     -462.174714     -461.601903     -461.602555  2.286201 -3.187353  1.893187
Dipole moment in unit cell =      -0.0000      -0.0000       0.0752 D
Electric field for dipole correction =     0.000000     0.000000    -0.047247 eV/Ang/e
   scf:  158     -461.804987     -461.586607     -461.586799  0.753019 -3.694644  0.976512
Dipole moment in unit cell =      -0.0000      -0.0000       0.0879 D
Electric field for dipole correction =     0.000000     0.000000    -0.055178 eV/Ang/e
   scf:  159     -461.738677     -461.638942     -461.640539  0.726005 -3.615763  0.150635
Dipole moment in unit cell =      -0.0000      -0.0000       0.0785 D
Electric field for dipole correction =     0.000000     0.000000    -0.049278 eV/Ang/e
   scf:  160     -461.784789     -461.579056     -461.579423  0.750544 -3.677542  0.111084
Dipole moment in unit cell =      -0.0000      -0.0000       0.0806 D
Electric field for dipole correction =     0.000000     0.000000    -0.050593 eV/Ang/e
   scf:  161     -461.763258     -461.533050     -461.533784  0.730993 -3.648864  0.051607
Dipole moment in unit cell =      -0.0000      -0.0000       0.0800 D
Electric field for dipole correction =     0.000000     0.000000    -0.050234 eV/Ang/e
   scf:  162     -461.786643     -461.582059     -461.582404  0.750043 -3.675924  0.052684
Dipole moment in unit cell =      -0.0000      -0.0000       0.0869 D
Electric field for dipole correction =     0.000000     0.000000    -0.054592 eV/Ang/e
   scf:  163     -461.731709     -461.585098     -461.587081  0.718277 -3.616452  0.119949
Dipole moment in unit cell =      -0.0000      -0.0000       0.2611 D
Electric field for dipole correction =     0.000000     0.000000    -0.163947 eV/Ang/e
   scf:  164     -463.946156     -461.918906     -461.918906  2.831170 -2.448972  2.110165
Dipole moment in unit cell =      -0.0000      -0.0000       0.1514 D
Electric field for dipole correction =     0.000000     0.000000    -0.095034 eV/Ang/e
   scf:  165     -462.089574     -461.699335     -461.700892  2.298826 -3.229637  1.363397
Dipole moment in unit cell =      -0.0000      -0.0000       0.0780 D
Electric field for dipole correction =     0.000000     0.000000    -0.048945 eV/Ang/e
   scf:  166     -461.784805     -461.552992     -461.553358  0.746553 -3.679932  0.867797
Dipole moment in unit cell =      -0.0000      -0.0000       0.0825 D
Electric field for dipole correction =     0.000000     0.000000    -0.051812 eV/Ang/e
   scf:  167     -461.776519     -461.558154     -461.558633  0.740517 -3.671831  0.017878
Dipole moment in unit cell =      -0.0000      -0.0000       0.0762 D
Electric field for dipole correction =     0.000000     0.000000    -0.047862 eV/Ang/e
   scf:  168     -461.786762     -461.548012     -461.548356  0.746994 -3.680790  0.020665
Dipole moment in unit cell =      -0.0000      -0.0000       0.0764 D
Electric field for dipole correction =     0.000000     0.000000    -0.047992 eV/Ang/e
   scf:  169     -461.780468     -461.535793     -461.536215  0.742111 -3.675480  0.012435
Dipole moment in unit cell =      -0.0000      -0.0000       0.0909 D
Electric field for dipole correction =     0.000000     0.000000    -0.057075 eV/Ang/e
   scf:  170     -461.707123     -461.602780     -461.606929  0.696451 -3.589254  0.165148
Dipole moment in unit cell =      -0.0000      -0.0000       0.0808 D
Electric field for dipole correction =     0.000000     0.000000    -0.050716 eV/Ang/e
   scf:  171     -461.755110     -461.573081     -461.574033  0.732519 -3.643325  0.105601
Dipole moment in unit cell =      -0.0000      -0.0000       0.1011 D
Electric field for dipole correction =     0.000000     0.000000    -0.063461 eV/Ang/e
   scf:  172     -461.750798     -461.329473     -461.330561  0.713207 -3.648460  0.033950
Dipole moment in unit cell =      -0.0000      -0.0000       0.0322 D
Electric field for dipole correction =     0.000000     0.000000    -0.020221 eV/Ang/e
   scf:  173     -461.922509     -461.572863     -461.572867  0.770082 -3.816381  0.347932
Dipole moment in unit cell =      -0.0000      -0.0000       0.2705 D
Electric field for dipole correction =     0.000000     0.000000    -0.169863 eV/Ang/e
   scf:  174     -463.009723     -461.770929     -461.770929  2.528849 -2.920078  1.780472
Dipole moment in unit cell =      -0.0000      -0.0000       0.1566 D
Electric field for dipole correction =     0.000000     0.000000    -0.098301 eV/Ang/e
   scf:  175     -461.742724     -461.585686     -461.619027  1.914257 -3.364866  0.887180
Dipole moment in unit cell =      -0.0000      -0.0000       0.0852 D
Electric field for dipole correction =     0.000000     0.000000    -0.053478 eV/Ang/e
   scf:  176     -461.752757     -461.568652     -461.569676  0.724918 -3.640121  0.538482
Dipole moment in unit cell =      -0.0000      -0.0000       0.0878 D
Electric field for dipole correction =     0.000000     0.000000    -0.055119 eV/Ang/e
   scf:  177     -461.729536     -461.558966     -461.561085  0.707773 -3.615013  0.050609
Dipole moment in unit cell =      -0.0000      -0.0000       0.0942 D
Electric field for dipole correction =     0.000000     0.000000    -0.059157 eV/Ang/e
   scf:  178     -461.726645     -461.579539     -461.581847  0.703604 -3.609727  0.016796
Dipole moment in unit cell =      -0.0000      -0.0000       0.0831 D
Electric field for dipole correction =     0.000000     0.000000    -0.052155 eV/Ang/e
   scf:  179     -461.753513     -461.572176     -461.573176  0.725418 -3.641331  0.062401
Dipole moment in unit cell =      -0.0000      -0.0000       0.0980 D
Electric field for dipole correction =     0.000000     0.000000    -0.061547 eV/Ang/e
   scf:  180     -461.702623     -461.588558     -461.593264  0.690394 -3.587472  0.108323
Dipole moment in unit cell =      -0.0000      -0.0000       0.0777 D
Electric field for dipole correction =     0.000000     0.000000    -0.048774 eV/Ang/e
   scf:  181     -461.770785     -461.579241     -461.579817  0.734601 -3.658142  0.144097
Dipole moment in unit cell =      -0.0000      -0.0000       0.3107 D
Electric field for dipole correction =     0.000000     0.000000    -0.195097 eV/Ang/e
   scf:  182     -463.866770     -461.404930     -461.404930  2.721703 -2.604470  2.105446
Dipole moment in unit cell =      -0.0000      -0.0000       0.1515 D
Electric field for dipole correction =     0.000000     0.000000    -0.095114 eV/Ang/e
   scf:  183     -461.922232     -461.614125     -461.622046  2.192663 -3.298852  1.402422
Dipole moment in unit cell =      -0.0000      -0.0000       0.0825 D
Electric field for dipole correction =     0.000000     0.000000    -0.051828 eV/Ang/e
   scf:  184     -461.735055     -461.555208     -461.557000  0.712797 -3.619994  0.625471
Dipole moment in unit cell =      -0.0000      -0.0000       0.0691 D
Electric field for dipole correction =     0.000000     0.000000    -0.043391 eV/Ang/e
   scf:  185     -461.819984     -461.556797     -461.556914  0.753245 -3.715682  0.188029
Dipole moment in unit cell =      -0.0000      -0.0000       0.0679 D
Electric field for dipole correction =     0.000000     0.000000    -0.042608 eV/Ang/e
   scf:  186     -461.824853     -461.552326     -461.552426  0.756502 -3.721730  0.011275
Dipole moment in unit cell =      -0.0000      -0.0000       0.0784 D
Electric field for dipole correction =     0.000000     0.000000    -0.049258 eV/Ang/e
   scf:  187     -461.785237     -461.560904     -461.561265  0.745904 -3.679935  0.084503
Dipole moment in unit cell =      -0.0000      -0.0000       0.0677 D
Electric field for dipole correction =     0.000000     0.000000    -0.042535 eV/Ang/e
   scf:  188     -461.821871     -461.550927     -461.551038  0.759708 -3.719687  0.078978
Dipole moment in unit cell =      -0.0000      -0.0000       0.0792 D
Electric field for dipole correction =     0.000000     0.000000    -0.049701 eV/Ang/e
   scf:  189     -461.771408     -461.562059     -461.562624  0.739441 -3.663583  0.110449
Dipole moment in unit cell =      -0.0000      -0.0000       0.1815 D
Electric field for dipole correction =     0.000000     0.000000    -0.113983 eV/Ang/e
   scf:  190     -462.640448     -461.575725     -461.575729  2.530612 -2.984913  1.274267
Dipole moment in unit cell =      -0.0000      -0.0000       0.1161 D
Electric field for dipole correction =     0.000000     0.000000    -0.072898 eV/Ang/e
   scf:  191     -461.583922     -461.590368     -461.661711  0.651301 -3.432946  0.829737
Dipole moment in unit cell =      -0.0000      -0.0000       0.0538 D
Electric field for dipole correction =     0.000000     0.000000    -0.033779 eV/Ang/e
   scf:  192     -461.869762     -461.539437     -461.539460  0.766381 -3.767591  0.653264
Dipole moment in unit cell =      -0.0000      -0.0000       0.0612 D
Electric field for dipole correction =     0.000000     0.000000    -0.038426 eV/Ang/e
   scf:  193     -461.851636     -461.536646     -461.536688  0.780707 -3.755811  0.034077
Dipole moment in unit cell =      -0.0000      -0.0000       0.0608 D
Electric field for dipole correction =     0.000000     0.000000    -0.038163 eV/Ang/e
   scf:  194     -461.855593     -461.530396     -461.530434  0.781495 -3.761131  0.009432
Dipole moment in unit cell =      -0.0000      -0.0000       0.0566 D
Electric field for dipole correction =     0.000000     0.000000    -0.035525 eV/Ang/e
   scf:  195     -461.850121     -461.522265     -461.522310  0.776794 -3.754118  0.012968
Dipole moment in unit cell =      -0.0000      -0.0000       0.1054 D
Electric field for dipole correction =     0.000000     0.000000    -0.066189 eV/Ang/e
   scf:  196     -461.674870     -461.620962     -461.630888  0.649398 -3.551467  0.387259
Dipole moment in unit cell =      -0.0000      -0.0000       0.0551 D
Electric field for dipole correction =     0.000000     0.000000    -0.034624 eV/Ang/e
   scf:  197     -461.877000     -461.555601     -461.555619  0.789730 -3.778744  0.440092
Dipole moment in unit cell =      -0.0000      -0.0000       0.3088 D
Electric field for dipole correction =     0.000000     0.000000    -0.193900 eV/Ang/e
   scf:  198     -463.691580     -461.928497     -461.928497  2.712105 -2.522720  2.292609
Dipole moment in unit cell =      -0.0000      -0.0000       0.1761 D
Electric field for dipole correction =     0.000000     0.000000    -0.110558 eV/Ang/e
   scf:  199     -462.057735     -461.664349     -461.666476  2.260469 -3.238044  1.250295
Dipole moment in unit cell =      -0.0000      -0.0000       0.0819 D
Electric field for dipole correction =     0.000000     0.000000    -0.051393 eV/Ang/e
   scf:  200     -461.777550     -461.565457     -461.565920  0.747080 -3.671642  0.830311
Dipole moment in unit cell =      -0.0000      -0.0000       0.0828 D
Electric field for dipole correction =     0.000000     0.000000    -0.051963 eV/Ang/e
   scf:  201     -461.774911     -461.571956     -461.572460  0.745948 -3.667551  0.007175
Dipole moment in unit cell =      -0.0000      -0.0000       0.0808 D
Electric field for dipole correction =     0.000000     0.000000    -0.050739 eV/Ang/e
   scf:  202     -461.778355     -461.561968     -461.562420  0.747025 -3.672776  0.009848
Dipole moment in unit cell =      -0.0000      -0.0000       0.0863 D
Electric field for dipole correction =     0.000000     0.000000    -0.054167 eV/Ang/e
   scf:  203     -461.758956     -461.578564     -461.579404  0.737043 -3.648865  0.044859
Dipole moment in unit cell =      -0.0000      -0.0000       0.1028 D
Electric field for dipole correction =     0.000000     0.000000    -0.064552 eV/Ang/e
   scf:  204     -461.695790     -461.582254     -461.587952  0.683593 -3.578834  0.136932
Dipole moment in unit cell =      -0.0000      -0.0000       0.0891 D
Electric field for dipole correction =     0.000000     0.000000    -0.055944 eV/Ang/e
   scf:  205     -461.746967     -461.567286     -461.568515  0.730470 -3.637483  0.112523
Dipole moment in unit cell =      -0.0000      -0.0000       0.1774 D
Electric field for dipole correction =     0.000000     0.000000    -0.111381 eV/Ang/e
   scf:  206     -461.975610     -461.743951     -461.748745  2.292241 -3.228943  0.740034
Dipole moment in unit cell =      -0.0000      -0.0000       0.0937 D
Electric field for dipole correction =     0.000000     0.000000    -0.058829 eV/Ang/e
   scf:  207     -461.735071     -461.562873     -461.564656  0.725887 -3.626646  0.717698
Dipole moment in unit cell =      -0.0000      -0.0000       0.0986 D
Electric field for dipole correction =     0.000000     0.000000    -0.061892 eV/Ang/e
   scf:  208     -461.719818     -461.564388     -461.567225  0.705199 -3.606348  0.038634
Dipole moment in unit cell =      -0.0000      -0.0000       0.0909 D
Electric field for dipole correction =     0.000000     0.000000    -0.057086 eV/Ang/e
   scf:  209     -461.748996     -461.571609     -461.572761  0.731327 -3.639187  0.064159
Dipole moment in unit cell =      -0.0000      -0.0000       0.0922 D
Electric field for dipole correction =     0.000000     0.000000    -0.057900 eV/Ang/e
   scf:  210     -461.740307     -461.576984     -461.578498  0.725653 -3.628550  0.020108
Dipole moment in unit cell =      -0.0000      -0.0000       0.1099 D
Electric field for dipole correction =     0.000000     0.000000    -0.069002 eV/Ang/e
   scf:  211     -461.674947     -461.618257     -461.628146  0.641785 -3.549028  0.146281
Dipole moment in unit cell =      -0.0000      -0.0000       0.0889 D
Electric field for dipole correction =     0.000000     0.000000    -0.055816 eV/Ang/e
   scf:  212     -461.751319     -461.566787     -461.567858  0.733182 -3.642801  0.172345
Dipole moment in unit cell =      -0.0000      -0.0000       0.2571 D
Electric field for dipole correction =     0.000000     0.000000    -0.161454 eV/Ang/e
   scf:  213     -462.868749     -461.853969     -461.853970  2.521119 -2.864985  1.426120
Dipole moment in unit cell =      -0.0000      -0.0000       0.0675 D
Electric field for dipole correction =     0.000000     0.000000    -0.042389 eV/Ang/e
   scf:  214     -461.737962     -461.519657     -461.521322  0.723335 -3.635489  1.402303
Dipole moment in unit cell =      -0.0000      -0.0000       0.1107 D
Electric field for dipole correction =     0.000000     0.000000    -0.069520 eV/Ang/e
   scf:  215     -461.637261     -461.549198     -461.572335  0.506067 -3.521264  0.223049
Dipole moment in unit cell =      -0.0000      -0.0000       0.1012 D
Electric field for dipole correction =     0.000000     0.000000    -0.063566 eV/Ang/e
   scf:  216     -461.632172     -461.540750     -461.566443  0.481261 -3.518886  0.014390
Dipole moment in unit cell =      -0.0000      -0.0000       0.0881 D
Electric field for dipole correction =     0.000000     0.000000    -0.055345 eV/Ang/e
   scf:  217     -461.748274     -461.528371     -461.529553  0.737872 -3.647143  0.243104
Dipole moment in unit cell =      -0.0000      -0.0000       0.1410 D
Electric field for dipole correction =     0.000000     0.000000    -0.088564 eV/Ang/e
   scf:  218     -461.582654     -461.636265     -461.707451  0.623952 -3.426409  0.405769
Dipole moment in unit cell =      -0.0000      -0.0000       0.1115 D
Electric field for dipole correction =     0.000000     0.000000    -0.069982 eV/Ang/e
   scf:  219     -461.683585     -461.605730     -461.613647  0.661124 -3.560293  0.252413
Dipole moment in unit cell =      -0.0000      -0.0000       0.1179 D
Electric field for dipole correction =     0.000000     0.000000    -0.074037 eV/Ang/e
   scf:  220     -461.682064     -461.622742     -461.630974  0.654861 -3.554677  0.015373
Dipole moment in unit cell =      -0.0000      -0.0000       0.0945 D
Electric field for dipole correction =     0.000000     0.000000    -0.059364 eV/Ang/e
   scf:  221     -461.762445     -461.599771     -461.600521  0.734238 -3.646876  0.176420
Dipole moment in unit cell =      -0.0000      -0.0000       0.0930 D
Electric field for dipole correction =     0.000000     0.000000    -0.058407 eV/Ang/e
   scf:  222     -461.760742     -461.585460     -461.586252  0.729200 -3.645397  0.003256
Dipole moment in unit cell =      -0.0000      -0.0000       0.0990 D
Electric field for dipole correction =     0.000000     0.000000    -0.062170 eV/Ang/e
   scf:  223     -461.746799     -461.595324     -461.596556  0.721045 -3.627843  0.033045
Dipole moment in unit cell =      -0.0000      -0.0000       0.0966 D
Electric field for dipole correction =     0.000000     0.000000    -0.060662 eV/Ang/e
   scf:  224     -461.744672     -461.598014     -461.599332  0.717900 -3.624695  0.005537
Dipole moment in unit cell =      -0.0000      -0.0000       0.3432 D
Electric field for dipole correction =     0.000000     0.000000    -0.215480 eV/Ang/e
   scf:  225     -463.356094     -461.864673     -461.864673  2.598886 -2.690517  1.740823
Dipole moment in unit cell =      -0.0000      -0.0000       0.2230 D
Electric field for dipole correction =     0.000000     0.000000    -0.139998 eV/Ang/e
   scf:  226     -462.259690     -461.688097     -461.688358  2.329973 -3.149333  0.832891
Dipole moment in unit cell =      -0.0000      -0.0000       0.1147 D
Electric field for dipole correction =     0.000000     0.000000    -0.072041 eV/Ang/e
   scf:  227     -461.686067     -461.598429     -461.605838  0.661397 -3.562370  0.784130
Dipole moment in unit cell =      -0.0000      -0.0000       0.1046 D
Electric field for dipole correction =     0.000000     0.000000    -0.065667 eV/Ang/e
   scf:  228     -461.720203     -461.587022     -461.589824  0.702031 -3.600428  0.073100
Dipole moment in unit cell =      -0.0000      -0.0000       0.1047 D
Electric field for dipole correction =     0.000000     0.000000    -0.065731 eV/Ang/e
[...]
   scf:  246     -461.741467     -461.683060     -461.716659  1.935527 -3.336909  0.488512
Dipole moment in unit cell =      -0.0000      -0.0000       0.1316 D
Electric field for dipole correction =     0.000000     0.000000    -0.082629 eV/Ang/e
   scf:  247     -461.630358     -461.640275     -461.666631  0.474861 -3.499267  0.303453
Dipole moment in unit cell =      -0.0000      -0.0000       0.1335 D
Electric field for dipole correction =     0.000000     0.000000    -0.083803 eV/Ang/e
   scf:  248     -461.620968     -461.644093     -461.675443  0.415953 -3.490237  0.017016
Dipole moment in unit cell =      -0.0000      -0.0000       0.1297 D
Electric field for dipole correction =     0.000000     0.000000    -0.081450 eV/Ang/e
   scf:  249     -461.621846     -461.635990     -461.666852  0.419516 -3.491384  0.006302
Dipole moment in unit cell =      -0.0000      -0.0000       0.1311 D
Electric field for dipole correction =     0.000000     0.000000    -0.082296 eV/Ang/e
   scf:  250     -461.617691     -461.641225     -461.674451  0.390035 -3.486651  0.008727
Dipole moment in unit cell =      -0.0000      -0.0000       0.1327 D
Electric field for dipole correction =     0.000000     0.000000    -0.083344 eV/Ang/e
   scf:  251     -461.612278     -461.645233     -461.681738  0.347703 -3.481988  0.009396
Dipole moment in unit cell =      -0.0000      -0.0000       0.1382 D
Electric field for dipole correction =     0.000000     0.000000    -0.086795 eV/Ang/e
   scf:  252     -461.594580     -461.647014     -461.696067  0.146208 -3.463318  0.035086
Dipole moment in unit cell =      -0.0000      -0.0000       0.0840 D
Electric field for dipole correction =     0.000000     0.000000    -0.052769 eV/Ang/e
   scf:  253     -461.786739     -461.589853     -461.590196  0.748408 -3.679588  0.404816
Dipole moment in unit cell =      -0.0000      -0.0000       0.0953 D
Electric field for dipole correction =     0.000000     0.000000    -0.059837 eV/Ang/e
   scf:  254     -461.750050     -461.573576     -461.574688  0.718582 -3.635182  0.083790
Dipole moment in unit cell =      -0.0000      -0.0000       0.1041 D
Electric field for dipole correction =     0.000000     0.000000    -0.065350 eV/Ang/e
   scf:  255     -461.729571     -461.581965     -461.584072  0.704581 -3.610422  0.046792
Dipole moment in unit cell =      -0.0000      -0.0000       0.0973 D
Electric field for dipole correction =     0.000000     0.000000    -0.061107 eV/Ang/e
   scf:  256     -461.745315     -461.572578     -461.573869  0.715260 -3.629904  0.036579
Dipole moment in unit cell =      -0.0000      -0.0000       0.0961 D
Electric field for dipole correction =     0.000000     0.000000    -0.060343 eV/Ang/e
   scf:  257     -461.748683     -461.568520     -461.569682  0.717517 -3.634790  0.008809
Dipole moment in unit cell =      -0.0000      -0.0000       0.1370 D
Electric field for dipole correction =     0.000000     0.000000    -0.086015 eV/Ang/e
   scf:  258     -461.593611     -461.618788     -461.668639  0.127110 -3.465687  0.317884
Dipole moment in unit cell =      -0.0000      -0.0000       0.1488 D
Electric field for dipole correction =     0.000000     0.000000    -0.093430 eV/Ang/e
   scf:  259     -461.585537     -461.634782     -461.706410  0.730736 -3.417122  0.090273
Dipole moment in unit cell =      -0.0000      -0.0000       0.1037 D
Electric field for dipole correction =     0.000000     0.000000    -0.065089 eV/Ang/e
   scf:  260     -461.719694     -461.589821     -461.592665  0.697949 -3.599631  0.341924
Dipole moment in unit cell =      -0.0000      -0.0000       0.1110 D
Electric field for dipole correction =     0.000000     0.000000    -0.069701 eV/Ang/e
   scf:  261     -461.693568     -461.600309     -461.606356  0.668014 -3.568679  0.057920
Dipole moment in unit cell =      -0.0000      -0.0000       0.1049 D
Electric field for dipole correction =     0.000000     0.000000    -0.065867 eV/Ang/e
   scf:  262     -461.715024     -461.593478     -461.596749  0.694131 -3.594462  0.047814
Dipole moment in unit cell =      -0.0000      -0.0000       0.1078 D
Electric field for dipole correction =     0.000000     0.000000    -0.067688 eV/Ang/e
   scf:  263     -461.704791     -461.597973     -461.602382  0.682630 -3.581077  0.023950
Dipole moment in unit cell =      -0.0000      -0.0000       0.1085 D
Electric field for dipole correction =     0.000000     0.000000    -0.068127 eV/Ang/e
   scf:  264     -461.703382     -461.598907     -461.603498  0.681320 -3.580049  0.002493
Dipole moment in unit cell =      -0.0000      -0.0000       0.1069 D
Electric field for dipole correction =     0.000000     0.000000    -0.067091 eV/Ang/e
   scf:  265     -461.702950     -461.582740     -461.587389  0.677163 -3.579879  0.002519
Dipole moment in unit cell =      -0.0000      -0.0000       0.2782 D
Electric field for dipole correction =     0.000000     0.000000    -0.174705 eV/Ang/e
   scf:  266     -462.808430     -461.747656     -461.747657  2.481634 -2.887292  1.270500
Dipole moment in unit cell =      -0.0000      -0.0000       0.2612 D
Electric field for dipole correction =     0.000000     0.000000    -0.163983 eV/Ang/e
   scf:  267     -462.663979     -461.747004     -461.747007  2.443666 -2.950714  0.113909
Dipole moment in unit cell =      -0.0000      -0.0000       0.1035 D
Electric field for dipole correction =     0.000000     0.000000    -0.064996 eV/Ang/e
   scf:  268     -461.701838     -461.617587     -461.622390  0.685059 -3.578722  1.155021
Dipole moment in unit cell =      -0.0000      -0.0000       0.1156 D
Electric field for dipole correction =     0.000000     0.000000    -0.072608 eV/Ang/e
   scf:  269     -461.682631     -461.627978     -461.636089  0.652657 -3.551005  0.055036
Dipole moment in unit cell =      -0.0000      -0.0000       0.1296 D
Electric field for dipole correction =     0.000000     0.000000    -0.081385 eV/Ang/e
   scf:  270     -461.627199     -461.646492     -461.674465  0.458194 -3.495471  0.105452
Dipole moment in unit cell =      -0.0000      -0.0000       0.0965 D
Electric field for dipole correction =     0.000000     0.000000    -0.060597 eV/Ang/e
   scf:  271     -461.746290     -461.617299     -461.618551  0.723950 -3.626108  0.246651
Dipole moment in unit cell =      -0.0000      -0.0000       0.0968 D
Electric field for dipole correction =     0.000000     0.000000    -0.060811 eV/Ang/e
   scf:  272     -461.745867     -461.621567     -461.622836  0.724309 -3.624824  0.002031
Dipole moment in unit cell =      -0.0000      -0.0000       0.1080 D
Electric field for dipole correction =     0.000000     0.000000    -0.067798 eV/Ang/e
   scf:  273     -461.706904     -461.624692     -461.628841  0.690376 -3.587716  0.078684
Dipole moment in unit cell =      -0.0000      -0.0000       0.1395 D
Electric field for dipole correction =     0.000000     0.000000    -0.087603 eV/Ang/e
   scf:  274     -461.590276     -461.612307     -461.665037  0.067384 -3.452516  0.242867
Dipole moment in unit cell =      -0.0000      -0.0000       0.1197 D
Electric field for dipole correction =     0.000000     0.000000    -0.075156 eV/Ang/e
   scf:  275     -461.669725     -461.598729     -461.609972  0.619764 -3.538199  0.156995
Dipole moment in unit cell =      -0.0000      -0.0000       0.1184 D
Electric field for dipole correction =     0.000000     0.000000    -0.074328 eV/Ang/e
   scf:  276     -461.673050     -461.600360     -461.610718  0.627551 -3.542118  0.007288
Dipole moment in unit cell =      -0.0000      -0.0000       0.1274 D
Electric field for dipole correction =     0.000000     0.000000    -0.079980 eV/Ang/e
   scf:  277     -461.635451     -461.597344     -461.621232  0.497082 -3.502434  0.073324
Dipole moment in unit cell =      -0.0000      -0.0000       0.1418 D
Electric field for dipole correction =     0.000000     0.000000    -0.089050 eV/Ang/e
   scf:  278     -461.584978     -461.617323     -461.675217  0.047662 -3.445655  0.104464
Dipole moment in unit cell =      -0.0000      -0.0000       0.1286 D
Electric field for dipole correction =     0.000000     0.000000    -0.080723 eV/Ang/e
   scf:  279     -461.628169     -461.609134     -461.636606  0.462472 -3.496371  0.093148
Dipole moment in unit cell =      -0.0000      -0.0000       0.1415 D
Electric field for dipole correction =     0.000000     0.000000    -0.088877 eV/Ang/e
   scf:  280     -461.587919     -461.620773     -461.675673  0.026050 -3.450319  0.084518
Dipole moment in unit cell =      -0.0000      -0.0000       0.1442 D
Electric field for dipole correction =     0.000000     0.000000    -0.090511 eV/Ang/e
   scf:  281     -461.581844     -461.620710     -461.682389  0.149258 -3.438897  0.020946
Dipole moment in unit cell =      -0.0000      -0.0000       0.1325 D
Electric field for dipole correction =     0.000000     0.000000    -0.083202 eV/Ang/e
   scf:  282     -461.607889     -461.601481     -461.640818  0.306043 -3.475802  0.068937
Dipole moment in unit cell =      -0.0000      -0.0000       0.1323 D
Electric field for dipole correction =     0.000000     0.000000    -0.083085 eV/Ang/e
   scf:  283     -461.608404     -461.601210     -461.640206  0.311112 -3.476375  0.001083
Dipole moment in unit cell =      -0.0000      -0.0000       0.1325 D
Electric field for dipole correction =     0.000000     0.000000    -0.083216 eV/Ang/e
   scf:  284     -461.607444     -461.605456     -461.645088  0.301894 -3.475608  0.001634
Dipole moment in unit cell =      -0.0000      -0.0000       0.1333 D
Electric field for dipole correction =     0.000000     0.000000    -0.083673 eV/Ang/e
   scf:  285     -461.606567     -461.603596     -461.643815  0.293328 -3.474256  0.002568
Dipole moment in unit cell =      -0.0000      -0.0000       0.1386 D
Electric field for dipole correction =     0.000000     0.000000    -0.087034 eV/Ang/e
   scf:  286     -461.589441     -461.603479     -461.656954  0.056363 -3.453540  0.037779
Dipole moment in unit cell =      -0.0000      -0.0000       0.1403 D
Electric field for dipole correction =     0.000000     0.000000    -0.088065 eV/Ang/e
   scf:  287     -461.585887     -461.601830     -461.658755  0.022067 -3.448077  0.010044
Dipole moment in unit cell =      -0.0000      -0.0000       0.1310 D
Electric field for dipole correction =     0.000000     0.000000    -0.082253 eV/Ang/e
   scf:  288     -461.610421     -461.574846     -461.612544  0.331306 -3.483764  0.065003
Dipole moment in unit cell =      -0.0000      -0.0000       0.1343 D
Electric field for dipole correction =     0.000000     0.000000    -0.084316 eV/Ang/e
   scf:  289     -461.600245     -461.574455     -461.619129  0.223028 -3.472399  0.020974
Dipole moment in unit cell =      -0.0000      -0.0000       0.1362 D
Electric field for dipole correction =     0.000000     0.000000    -0.085495 eV/Ang/e
   scf:  290     -461.595674     -461.578497     -461.626669  0.162882 -3.466879  0.010067
Dipole moment in unit cell =      -0.0000      -0.0000       0.1382 D
Electric field for dipole correction =     0.000000     0.000000    -0.086805 eV/Ang/e
   scf:  291     -461.589864     -461.574809     -461.627894  0.066006 -3.458850  0.014518
Dipole moment in unit cell =      -0.0000      -0.0000       0.1371 D
Electric field for dipole correction =     0.000000     0.000000    -0.086095 eV/Ang/e
   scf:  292     -461.592553     -461.574703     -461.625436  0.113912 -3.462619  0.006921
Dipole moment in unit cell =      -0.0000      -0.0000       0.1346 D
Electric field for dipole correction =     0.000000     0.000000    -0.084514 eV/Ang/e
   scf:  293     -461.602632     -461.578781     -461.621724  0.251508 -3.476548  0.023976
Dipole moment in unit cell =      -0.0000      -0.0000       0.1380 D
Electric field for dipole correction =     0.000000     0.000000    -0.086637 eV/Ang/e
   scf:  294     -461.593744     -461.581067     -461.630802  0.132855 -3.465769  0.020044
Dipole moment in unit cell =      -0.0000      -0.0000       0.1408 D
Electric field for dipole correction =     0.000000     0.000000    -0.088399 eV/Ang/e
   scf:  295     -461.587332     -461.582100     -461.637562  0.013232 -3.456596  0.016942
Dipole moment in unit cell =      -0.0000      -0.0000       0.1400 D
Electric field for dipole correction =     0.000000     0.000000    -0.087930 eV/Ang/e
   scf:  296     -461.588874     -461.580274     -461.634265  0.045926 -3.459247  0.004809
Dipole moment in unit cell =      -0.0000      -0.0000       0.1384 D
Electric field for dipole correction =     0.000000     0.000000    -0.086909 eV/Ang/e
   scf:  297     -461.592807     -461.581463     -461.631979  0.117788 -3.464725  0.010092
Dipole moment in unit cell =      -0.0000      -0.0000       0.1379 D
Electric field for dipole correction =     0.000000     0.000000    -0.086576 eV/Ang/e
   scf:  298     -461.593862     -461.579728     -461.629367  0.134389 -3.465889  0.002298
Dipole moment in unit cell =      -0.0000      -0.0000       0.1395 D
Electric field for dipole correction =     0.000000     0.000000    -0.087573 eV/Ang/e
   scf:  299     -461.589928     -461.582257     -461.635282  0.066201 -3.460018  0.010718
Dipole moment in unit cell =      -0.0000      -0.0000       0.1410 D
Electric field for dipole correction =     0.000000     0.000000    -0.088543 eV/Ang/e
   scf:  300     -461.586706     -461.581983     -461.638065  0.001692 -3.455169  0.009002
Dipole moment in unit cell =      -0.0000      -0.0000       0.1410 D
Electric field for dipole correction =     0.000000     0.000000    -0.088538 eV/Ang/e
   scf:  301     -461.586973     -461.583236     -461.639052  0.004481 -3.455615  0.000815
Dipole moment in unit cell =      -0.0000      -0.0000       0.1412 D
Electric field for dipole correction =     0.000000     0.000000    -0.088632 eV/Ang/e
   scf:  302     -461.586718     -461.583598     -461.639667  0.001467 -3.455170  0.000844
Dipole moment in unit cell =      -0.0000      -0.0000       0.1408 D
Electric field for dipole correction =     0.000000     0.000000    -0.088399 eV/Ang/e
   scf:  303     -461.587399     -461.582467     -461.637864  0.014131 -3.456293  0.002336
Dipole moment in unit cell =      -0.0000      -0.0000       0.1408 D
Electric field for dipole correction =     0.000000     0.000000    -0.088392 eV/Ang/e
   scf:  304     -461.587394     -461.582284     -461.637686  0.013978 -3.456254  0.000067
Dipole moment in unit cell =      -0.0000      -0.0000       0.1411 D
Electric field for dipole correction =     0.000000     0.000000    -0.088595 eV/Ang/e
   scf:  305     -461.586761     -461.582793     -461.638820  0.000498 -3.455174  0.001975
Dipole moment in unit cell =      -0.0000      -0.0000       0.1412 D
Electric field for dipole correction =     0.000000     0.000000    -0.088642 eV/Ang/e
   scf:  306     -461.586646     -461.585744     -461.641886  0.002663 -3.454364  0.001069
Dipole moment in unit cell =      -0.0000      -0.0000       0.1411 D
Electric field for dipole correction =     0.000000     0.000000    -0.088603 eV/Ang/e
   scf:  307     -461.586772     -461.585704     -461.641720  0.000294 -3.454586  0.000395
Dipole moment in unit cell =      -0.0000      -0.0000       0.1412 D
Electric field for dipole correction =     0.000000     0.000000    -0.088643 eV/Ang/e
   scf:  308     -461.586747     -461.586862     -461.642902  0.000378 -3.454492  0.000303
Dipole moment in unit cell =      -0.0000      -0.0000       0.1412 D
Electric field for dipole correction =     0.000000     0.000000    -0.088631 eV/Ang/e
   scf:  309     -461.586783     -461.586824     -461.642828  0.000452 -3.454559  0.000122
Dipole moment in unit cell =      -0.0000      -0.0000       0.1412 D
Electric field for dipole correction =     0.000000     0.000000    -0.088636 eV/Ang/e
   scf:  310     -461.586765     -461.586831     -461.642854  0.000028 -3.454528  0.000056

SCF Convergence by DM+H criterion
max |DM_out - DM_in|         :     0.0000282772
max |H_out - H_in|      (eV) :     0.0000556927
SCF cycle converged after 310 iterations

Using DM_out to compute the final energy and forces
No. of atoms with KB's overlaping orbs in proc 0. Max # of overlaps:       3      95
Dipole moment in unit cell =      -0.0000      -0.0000       0.1412 D
Electric field for dipole correction =     0.000000     0.000000    -0.088655 eV/Ang/e

siesta: E_KS(eV) =             -461.5868

siesta: E_KS - E_eggbox =      -461.5868

siesta: Atomic forces (eV/Ang):
----------------------------------------
   Tot   -0.000000    0.000000   -0.198690
----------------------------------------
   Max    5.274450
   Res    2.576691    sqrt( Sum f_i^2 / 3N )
----------------------------------------
   Max    5.274450    constrained

Stress tensor Voigt[x,y,z,yz,xz,xy] (kbar):     -401.63       83.50      -91.81       -0.00        0.00        0.00
(Free)E + p*V (eV/cell)     -456.5257
Target enthalpy (eV/cell)     -461.6428

siesta: Program's energy decomposition (eV):
siesta: Ebs     =      -114.913935
siesta: Eions   =       815.854478
siesta: Ena     =       174.247460
siesta: Ekin    =       368.963343
siesta: Enl     =       -69.181873
siesta: Eso     =         0.000000
siesta: Edftu   =         0.000000
siesta: DEna    =        -6.178009
siesta: DUscf   =         0.424521
siesta: DUext   =         0.001303
siesta: Exc     =      -114.009031
siesta: eta*DQ  =         0.000000
siesta: Emadel  =         0.000000
siesta: Emeta   =         0.000000
siesta: Emolmec =         0.000000
siesta: Ekinion =         0.000000
siesta: Eharris =      -461.586765
siesta: Etot    =      -461.586765
siesta: FreeEng =      -461.642788

siesta: Final energy (eV):
siesta:  Band Struct. =    -114.913935
siesta:       Kinetic =     368.963343
siesta:       Hartree =     675.260408
siesta:       Edftu   =       0.000000
siesta:       Eso     =       0.000000
siesta:    Ext. field =       0.001303
siesta:   Exch.-corr. =    -114.009031
siesta:  Ion-electron =   -1685.353957
siesta:       Ion-ion =     293.551168
siesta:       Ekinion =       0.000000
siesta:         Total =    -461.586765
siesta:         Fermi =      -3.454528

siesta: Atomic forces (eV/Ang):
siesta:      1    0.000000    0.000000   -5.274450
siesta:      2    3.086465   -0.000000    2.537880
siesta:      3   -3.086465   -0.000000    2.537880
siesta: ----------------------------------------
siesta:    Tot   -0.000000    0.000000   -0.198690

siesta: Stress tensor (static) (eV/Ang**3):
siesta:    -0.250673    0.000000    0.000000
siesta:     0.000000    0.052118    0.000000
siesta:     0.000000   -0.000000   -0.057301

siesta: Cell volume =         60.000000 Ang**3

siesta: Pressure (static):
siesta:                Solid            Molecule  Units
siesta:           0.00092887          0.00046145  Ry/Bohr**3
siesta:           0.08528543          0.04236918  eV/Ang**3
siesta:         136.64380474         67.88364884  kBar
(Free)E+ p_basis*V_orbitals  =        -461.057621
(Free)Eharris+ p_basis*V_orbitals  =        -461.057621

siesta: Electric dipole (a.u.)  =   -0.000000   -0.000000    0.055551
siesta: Electric dipole (Debye) =   -0.000000   -0.000000    0.141196
Dipole moment in unit cell =      -0.0000      -0.0000       0.1412 D
Electric field for dipole correction =     0.000000     0.000000    -0.088655 eV/Ang/e

dhscf: Vacuum level (max, mean) =    0.603895    0.087097 eV

cite: Please see "dipole_correction.bib" for an exhaustive BiBTeX file.
cite: Please clearly indicate Siesta version in published work: v4.1-b4-351
cite: This calculation has made use of the following articles
cite: which are encouraged to be cited in a published work.
        Primary SIESTA paper
          DOI: www.doi.org/10.1088/0953-8984/14/11/302
        Slab-dipole correction
          DOI: www.doi.org/10.1103/PhysRevB.59.12301

>> End of run:  22-JAN-2021  21:49:58
Job completed
