Siesta Version  : v4.1-b4-351
Architecture    : x86_64-linux-n-62-26-19
Compiler version: GNU Fortran (GCC) 9.3.0
Compiler flags  : mpifort -m64 -fPIC -O3 -march=native -ftree-vectorize -fexpensive-optimizatioons -funroll-loops -fprefetch-loop-arrays -fno-second-underscore  -flto
PP flags        : -I/dtu/sw/dcc/SL73/2020-aug/generic/build-tools/1.0/include -I/dtu/sw/dcc/SL773/2020-aug/generic/gcc/9.3.0/include -I/dtu/sw/dcc/SL73/2020-aug/generic/gcc/9.3.0/include -I/dtu/sw/dcc/SL73/2020-aug/XeonE5-2660v3/gnu/9.3.0/zlib/1.2.11/include -I/dtu/sw/dcc/SL73/2020-aug/generic/numactl/2.0.12/include -I/dtu/sw/dcc/SL73/2020-aug/XeonE5-2660v3/gnu/9.3.0/libxml2/2.9.10/include -I/dtu/sw/dcc/SL73/2020-aug/XeonE5-2660v3/gnu/9.3.0/hwloc/2.2.0/include -I/dtu/sw/dcc/SL73/2020-aug/XeonE5-2660v3/gnu/9.3.0/knem/1.1.4/include -I/dtu/sw/dcc/SL73/2020-aug/XeonE5-2660v3/gnu/9.3.0/ucx/1.8.1/include -I/dtu/sw/dcc/SL73/2020-aug/XeonE5-2660v3/gnu/9.3.0/openmpi/4.0.4/include -I/dtu/sw/dcc/SL73/2020-aug/XeonE5-2660v3/gnu/9.3.0/szip/2.1.1/include -I/dtu/sw/dcc/SL73/2020-aug/XeonE5-2660v3/gnu/9.3.0/hdf5/1.12.0/include -I/dtu/sw/dcc/SL73/2020-aug/XeonE5-2660v3/gnu/9.3.0/pnetcdf/1.12.1/include -I/dtu/sw/dcc/SL73/2020-aug/generic/gen-zlib/1.2.11/include -I/dtu/sw/dcc/SL73/2020-aug/generic/openssl/1.1.1/include -I/dtu/sw/dcc/SL73/2020-aug/generic/libssh2/1.8.2/include -I/dtu/sw/dcc/SL73/2020-aug/generic/curl/7.65.1/include -I/dtu/sw/dcc/SL73/2020-aug/XeonE5-2660v3/gnu/9.3.0/netcdf/4.7.4/include -I/dtu/sw/dcc/SL73/2020-aug/XeonE5-2660v3/gnu/9.3.0/flook/0.8.1/include -I/dtu/sw/dcc/SL73/2020-aug/XeonE5-2660v3/gnu/9.3.0/fftw/3.3.8/include -I/dtu/sw/dcc/SL73/2020-aug/XeonE5-2660v3/gnu/9.3.0/parmetis/4.0.3/include -I/dtu/sw/dcc/SL73/2020-aug/XeonE5-2660v3/gnu/9.3.0/scalapack/2.1.0/include -I/dtu/sw/dcc/SL73/2020-aug/XeonE5-2660v3/gnu/9.3.0/lapack/3.9.0/include -I/dtu/sw/dcc/SL73/2020-aug/XeonE5-2660v3/gnu/9.3.0/blis/0.7.0/include -I/dtu/sw/dcc/SL73/2020-aug/XeonE5-2660v3/gnu/9.3.0/scotch/6.0.9/include -I/dtu/sw/dcc/SL73/2020-aug/XeonE5-2660v3/gnu/9.3.0/mumps/5.3.3/include -I/dtu/sw/dcc/SL73/2020-aug/XeonE5-2660v3/gnu/9.3.0/elpa/2020.05.001/include -DSIESTA__ELPA -DMPI -DFC_HAVE_FLUSH -DFC_HAVE_ABORT -DCDF -DCDF4 -DSIESTA__FLOOK  -DNCDF -DNCDF_4 -DNCDF_PARALLEL -DTS_NOCHECKS -DSIESTA__METIS -DSIESTA__MUMPS -DSIESTA__MRRR -I/dtu/sw/dcc/SL73/2020-aug/XeonE5-2660v3/gnu/9.3.0/elpa/2020.05.001/include/elpa
Libraries       : libncdf.a libfdict.a -lnetcdff -lnetcdf -lpnetcdf -lhdf5_hl -lhdf5 -lz  -lzmuumps -lmumps_common -lesmumps -lscotch -lscotcherr -lpord -lparmetis -lmetis -lelpa -lscalapack -llapack -lblis  -L/dtu/sw/dcc/SL73/2020-aug/XeonE5-2660v3/gnu/9.3.0/flook/0.8.1/lib -Wl,-rpath=/dtu/sw/dcc/SL73/2020-aug/XeonE5-2660v3/gnu/9.3.0/flook/0.8.1/lib -lflookall -ldl  -flto -fuse-linker-plugin  -lmetis
PARALLEL version
NetCDF support
NetCDF-4 support
NetCDF-4 MPI-IO support
METIS ordering support
Lua support

* Running on 8 nodes in parallel
>> Start of run:  22-JAN-2021  21:58:48

                           ***********************       
                           *  WELCOME TO SIESTA  *       
                           ***********************       

reinit: Reading from ../fe_clust_noncollinear.fdf

reinit: -----------------------------------------------------------------------
reinit: System Name: Linear Fe3 cluster.
reinit: -----------------------------------------------------------------------
reinit: System Label: fe_clust_noncollinear
reinit: -----------------------------------------------------------------------
Deprecated spin keyword overridden by new-style 'Spin' input
Option from deprecated keyword: non-collinear
Option from 'Spin' keyword input: non-collinear

initatom: Reading input for the pseudopotentials and atomic orbitals ----------
Species number:   1 Atomic number:   26 Label: fe_nc

Ground state valence configuration:   4s02  3d06
Reading pseudopotential information in formatted form from fe_nc.psf

Valence configuration for pseudopotential generation:
4s( 1.00) rc: 2.00
4p( 0.00) rc: 2.00
3d( 7.00) rc: 2.00
4f( 0.00) rc: 2.00
For fe_nc, standard SIESTA heuristics set lmxkb to 3
 (one more than the basis l, including polarization orbitals).
Use PS.lmax or PS.KBprojectors blocks to override.
fe_nc: nkbl increased for l=1 due to the presence of a polarization orbital

<basis_specs>
===============================================================================
fe_nc                Z=  26    Mass=  55.850        Charge= 0.17977+309
Lmxo=2 Lmxkb= 3    BasisType=split      Semic=F
L=0  Nsemic=0  Cnfigmx=4
          i=1  nzeta=2  polorb=1  (4s)
            splnorm:   0.15000    
               vcte:    0.0000    
               rinn:    0.0000    
               qcoe:    0.0000    
               qyuk:    0.0000    
               qwid:   0.10000E-01
                rcs:    0.0000      0.0000    
            lambdas:    1.0000      1.0000    
L=1  Nsemic=0  Cnfigmx=4
L=2  Nsemic=0  Cnfigmx=3
          i=1  nzeta=2  polorb=0  (3d)
            splnorm:   0.15000    
               vcte:    0.0000    
               rinn:    0.0000    
               qcoe:    0.0000    
               qyuk:    0.0000    
               qwid:   0.10000E-01
                rcs:    0.0000      0.0000    
            lambdas:    1.0000      1.0000    
-------------------------------------------------------------------------------
L=0  Nkbl=1  erefs: 0.17977+309
L=1  Nkbl=2  erefs: 0.17977+309 0.17977+309
L=2  Nkbl=1  erefs: 0.17977+309
L=3  Nkbl=1  erefs: 0.17977+309
===============================================================================
</basis_specs>

atom: Called for fe_nc                 (Z =  26)

read_vps: Pseudopotential generation method:
read_vps: ATM3      Troullier-Martins                       
Valence charge for ps generation:    8.00000

read_vps: Pseudopotential includes a core correction:
read_vps: Pseudo-core for xc-correction

xc_check: Exchange-correlation functional:
xc_check: Ceperley-Alder
V l=0 = -2*Zval/r beyond r=  2.8345
V l=1 = -2*Zval/r beyond r=  2.8345
V l=2 = -2*Zval/r beyond r=  2.8345
V l=3 = -2*Zval/r beyond r=  2.8345
All V_l potentials equal beyond r=  1.9726
This should be close to max(r_c) in ps generation
All pots = -2*Zval/r beyond r=  2.8345
Using large-core scheme for Vlocal

atom: Estimated core radius    2.83451
atom: Maximum radius for 4*pi*r*r*local-pseudopot. charge    3.13263
atom: Maximum radius for r*vlocal+2*Zval:    2.87017
GHOST: No ghost state for L =  0
KBgen: More than one KB projector for l=  1
KBgen: ghost states analysis will be not performed
GHOST: No ghost state for L =  2
GHOST: No ghost state for L =  3

KBgen: Kleinman-Bylander projectors: 
   l= 0   rc=  2.047986   el= -0.319855   Ekb=  3.923406   kbcos=  0.252820
   l= 1   rc=  2.047986   el= -0.070931   Ekb=  3.313875   kbcos=  0.157841
   l= 1   rc=  2.047986   el=  0.001457   Ekb=  6.640675   kbcos=  0.001631
   l= 2   rc=  2.022544   el= -0.307264   Ekb=-12.478630   kbcos= -0.654791
   l= 3   rc=  2.047986   el=  0.003534   Ekb= -1.656634   kbcos= -0.005966

KBgen: Total number of  Kleinman-Bylander projectors:   19
atom: -------------------------------------------------------------------------

atom: SANKEY-TYPE ORBITALS:
atom: Selected multiple-zeta basis: split     

SPLIT: Orbitals with angular momentum L= 0

SPLIT: Basis orbitals for state 4s

SPLIT: PAO cut-off radius determined from an
SPLIT: energy shift=  0.020000 Ry

   izeta = 1
                 lambda =    1.000000
                     rc =    6.799774
                 energy =   -0.302238
                kinetic =    0.298810
    potential(screened) =   -0.601048
       potential(ionic) =   -5.818758

   izeta = 2
                 rmatch =    6.468141
              splitnorm =    0.150000
                 energy =   -0.257217
                kinetic =    0.445909
    potential(screened) =   -0.703126
       potential(ionic) =   -6.273620

SPLIT: Orbitals with angular momentum L= 2

SPLIT: Basis orbitals for state 3d

SPLIT: PAO cut-off radius determined from an
SPLIT: energy shift=  0.020000 Ry

   izeta = 1
                 lambda =    1.000000
                     rc =    4.022404
                 energy =   -0.287031
                kinetic =    8.952870
    potential(screened) =   -9.239901
       potential(ionic) =  -18.247427

   izeta = 2
                 rmatch =    2.291856
              splitnorm =    0.150000
                 energy =    0.070417
                kinetic =   12.282791
    potential(screened) =  -12.212374
       potential(ionic) =  -21.929746

POLgen: Perturbative polarization orbital with L=  1

POLgen: Polarization orbital for state 4s

   izeta = 1
                     rc =    6.799774
                 energy =   -0.003154
                kinetic =    0.566601
    potential(screened) =   -0.569755
       potential(ionic) =   -5.393577
atom: Total number of Sankey-type orbitals: 15

atm_pop: Valence configuration (for local Pseudopot. screening):
 4s( 2.00)                                                            
 4p( 0.00)                                                            
 3d( 6.00)                                                            
Vna: chval, zval:    8.00000   8.00000

Vna:  Cut-off radius for the neutral-atom potential:   6.799774
comcore: Pseudo-core radius Rcore=  3.874354

atom: _________________________________________________________________________

prinput: Basis input ----------------------------------------------------------

PAO.BasisType split     

%block ChemicalSpeciesLabel
    1   26 fe_nc                   # Species index, atomic number, species label
%endblock ChemicalSpeciesLabel

%block PAO.Basis                 # Define Basis set
fe_nc                 2                    # Species label, number of l-shells
 n=4   0   2 P   1                   # n, l, Nzeta, Polarization, NzetaPol
   6.800      6.468   
   1.000      1.000   
 n=3   2   2                         # n, l, Nzeta 
   4.022      2.292   
   1.000      1.000   
%endblock PAO.Basis

prinput: ----------------------------------------------------------------------

Dumping basis to NetCDF file fe_nc.ion.nc
coor:   Atomic-coordinates input format  =     Cartesian coordinates
coor:                                            (in Bohr units)

siesta: Atomic coordinates (Bohr) and species
siesta:      0.00000   0.00000   3.64400  1        1
siesta:      0.00000   0.00000   0.00000  1        2
siesta:      0.00000   0.00000  -3.64400  1        3

siesta: System type = bulk      

initatomlists: Number of atoms, orbitals, and projectors:      3    45    57

siesta: ******************** Simulation parameters ****************************
siesta:
siesta: The following are some of the parameters of the simulation.
siesta: A complete list of the parameters used, including default values,
siesta: can be found in file out.fdf
siesta:
redata: Spin configuration                          = non-collinear
redata: Number of spin components                   = 4
redata: Time-Reversal Symmetry                      = F
redata: Spin spiral                                 = F
redata: Long output                                 =   F
redata: Number of Atomic Species                    =        1
redata: Charge density info will appear in .RHO file
redata: Write Mulliken Pop.                         = Atomic and Orbital charges
redata: Matel table size (NRTAB)                    =     1024
redata: Mesh Cutoff                                 =   150.0000 Ry
redata: Net charge of the system                    =     0.0000 |e|
redata: Min. number of SCF Iter                     =        0
redata: Max. number of SCF Iter                     =     1000
redata: SCF convergence failure will abort job
redata: SCF mix quantity                            = Hamiltonian
redata: Mix DM or H after convergence               =   F
redata: Recompute H after scf cycle                 =   F
redata: Mix DM in first SCF step                    =   T
redata: Write Pulay info on disk                    =   F
redata: New DM Occupancy tolerance                  = 0.000000000001
redata: No kicks to SCF
redata: DM Mixing Weight for Kicks                  =     0.5000
redata: Require Harris convergence for SCF          =   F
redata: Harris energy tolerance for SCF             =     0.000100 eV
redata: Require DM convergence for SCF              =   T
redata: DM tolerance for SCF                        =     0.000100
redata: Require EDM convergence for SCF             =   F
redata: EDM tolerance for SCF                       =     0.001000 eV
redata: Require H convergence for SCF               =   T
redata: Hamiltonian tolerance for SCF               =     0.001000 eV
redata: Require (free) Energy convergence for SCF   =   F
redata: (free) Energy tolerance for SCF             =     0.000100 eV
redata: Using Saved Data (generic)                  =   F
redata: Use continuation files for DM               =   T
redata: Neglect nonoverlap interactions             =   F
redata: Method of Calculation                       = Diagonalization
redata: Electronic Temperature                      =  1160.4438 K
redata: Fix the spin of the system                  =   F
redata: Dynamics option                             = Single-point calculation
mix.SCF: Pulay mixing                            = Pulay
mix.SCF:    Variant                              = stable
mix.SCF:    History steps                        = 4
mix.SCF:    Linear mixing weight                 =     0.010000
mix.SCF:    Mixing weight                        =     0.010000
mix.SCF:    SVD condition                        = 0.1000E-07
mix.SCF: Spin-component mixing                   all
redata: Save all siesta data in one NC              =   F
redata: ***********************************************************************

%block SCF.Mixers
  Pulay
%endblock SCF.Mixers

%block SCF.Mixer.Pulay
  # Mixing method
  method pulay
  variant stable

  # Mixing options
  weight 0.0100
  weight.linear 0.0100
  history 4
%endblock SCF.Mixer.Pulay

DM_history_depth set to one: no extrapolation allowed by default for geometry relaxation
Size of DM history Fstack: 1
Total number of electrons:    24.000000
Total ionic charge:    24.000000

* ProcessorY, Blocksize:    2   6


* Orbital distribution balance (max,min):     6     3


Time-reversal symmetry not used.

siesta: k-grid: Number of k-points =     1
siesta: k-grid: Cutoff (effective) =     3.175 Ang
siesta: k-grid: Supercell and displacements
siesta: k-grid:    1   0   0      0.000
siesta: k-grid:    0   1   0      0.000
siesta: k-grid:    0   0   1      0.000

diag: Algorithm                                     = D&C
diag: Parallel over k                               =   F
diag: Use parallel 2D distribution                  =   T
diag: Parallel block-size                           = 6
diag: Parallel distribution                         =     2 x     4
diag: Used triangular part                          = Lower
diag: Absolute tolerance                            =  0.100E-15
diag: Orthogonalization factor                      =  0.100E-05
diag: Memory factor                                 =  1.0000


ts: **************************************************************
ts: Save H and S matrices                           =    F
ts: Save DM and EDM matrices                        =    F
ts: Only save the overlap matrix S                  =    F
ts: **************************************************************

************************ Begin: TS CHECKS AND WARNINGS ************************
************************ End: TS CHECKS AND WARNINGS **************************


                     ====================================
                        Single-point calculation
                     ====================================

outcell: Unit cell vectors (Ang):
        6.350124    0.000000    0.000000
        0.000000    6.350124    0.000000
        0.000000    0.000000   10.583540

outcell: Cell vector modules (Ang)   :    6.350124    6.350124   10.583540
outcell: Cell angles (23,13,12) (deg):     90.0000     90.0000     90.0000
outcell: Cell volume (Ang**3)        :    426.7715
Gamma-point calculation with interaction between periodic images
Some features might not work optimally:
e.g. DM initialization from atomic data
<dSpData1D:S at geom step 0
  <sparsity:sparsity for geom step 0
    nrows_g=45 nrows=6 sparsity=.1333 nnzs=270, refcount: 7>
  <dData1D:(new from dSpData1D) n=270, refcount: 1>
refcount: 1>
new_DM -- step:     1
Initializing Density Matrix...

Attempting to read DM from file... Failed...
DM filled with atomic data (user-defined):
<dSpData2D:DM initialized from atoms
  <sparsity:sparsity for geom step 0
    nrows_g=45 nrows=6 sparsity=.1333 nnzs=270, refcount: 8>
  <dData2D:DM n=270 m=4, refcount: 1>
refcount: 1>
     spin moment: S , {S} =    1.50000   1.50000   0.00000   0.00000
No. of atoms with KB's overlaping orbs in proc 0. Max # of overlaps:       3      45
New grid distribution:   1
           1       1:   24    1:   12    1:   10
           2       1:   24    1:   12   11:   20
           3       1:   24    1:   12   21:   30
           4       1:   24    1:   12   31:   40
           5       1:   24   13:   24    1:   10
           6       1:   24   13:   24   11:   20
           7       1:   24   13:   24   21:   30
           8       1:   24   13:   24   31:   40

InitMesh: MESH =    48 x    48 x    80 =      184320
InitMesh: (bp) =    24 x    24 x    40 =       23040
InitMesh: Mesh cutoff (required, used) =   150.000   157.914 Ry
ExtMesh (bp) on 0 =    80 x    68 x    66 =      359040
New grid distribution:   2
           1      12:   24    1:   11    1:   15
           2       1:   11    1:   11    1:   15
           3      12:   24    1:   11   16:   40
           4       1:   11    1:   11   16:   40
           5      12:   24   12:   24    1:   15
           6       1:   11   12:   24    1:   15
           7      12:   24   12:   24   16:   40
           8       1:   11   12:   24   16:   40
New grid distribution:   3
           1       1:   12   13:   24   20:   40
           2      13:   24    1:   12    1:   19
           3      13:   24    1:   12   20:   40
           4      13:   24   13:   24    1:   19
           5       1:   12    1:   12   20:   40
           6       1:   12    1:   12    1:   19
           7      13:   24   13:   24   20:   40
           8       1:   12   13:   24    1:   19
Setting up quadratic distribution...
ExtMesh (bp) on 0 =    69 x    67 x    71 =      328233
PhiOnMesh: Number of (b)points on node 0 =                 2145
PhiOnMesh: nlist on node 0 =                25197

stepf: Fermi-Dirac step function

siesta: Program's energy decomposition (eV):
siesta: Ebs     =       296.552197
siesta: Eions   =      2141.484345
siesta: Ena     =        95.469235
siesta: Ekin    =      2894.135049
siesta: Enl     =     -1845.643791
siesta: Eso     =         0.000000
siesta: Edftu   =         0.000000
siesta: DEna    =      -119.991632
siesta: DUscf   =        64.250494
siesta: DUext   =         0.000000
siesta: Exc     =     -1226.471890
siesta: eta*DQ  =         0.000000
siesta: Emadel  =         0.000000
siesta: Emeta   =         0.000000
siesta: Emolmec =         0.000000
siesta: Ekinion =         0.000000
siesta: Eharris =     -2188.621529
siesta: Etot    =     -2279.736880
siesta: FreeEng =     -2280.290972

        iscf     Eharris(eV)        E_KS(eV)     FreeEng(eV)     dDmax    Ef(eV) dHmax(eV)
   scf:    1    -2188.621529    -2279.736880    -2280.290972  0.981529 -7.983581 45.033840
     spin moment: S , {S} =    1.52577   1.52577   0.00000  -0.00000
timer: Routine,Calls,Time,% = IterSCF        1       0.107   7.69
   scf:    2    -2292.402970    -2286.252687    -2286.801094  0.043504 -7.833504 41.185476
     spin moment: S , {S} =    1.58342   1.58342   0.00000   0.00000
   scf:    3    -2084.517112    -2251.978899    -2252.134189  0.480226 -5.886056 32.311005
     spin moment: S , {S} =    2.31246   2.31246   0.00000  -0.00000
   scf:    4    -1531.310641    -1956.553641    -1956.553642  0.553372 -2.761725102.393880
     spin moment: S , {S} =    0.01184   0.01184   0.00000  -0.00000
   scf:    5    -1928.547390    -1942.637109    -1942.637110  0.053456 -2.910689103.207216
     spin moment: S , {S} =    0.00831   0.00831   0.00000  -0.00000
   scf:    6    -1566.135137    -2201.726495    -2202.069739  0.914849 -1.043920 46.144487
     spin moment: S , {S} =    0.50605   0.50605   0.00000  -0.00000
   scf:    7    -2373.497447    -2314.225297    -2314.278131  0.604449 -3.460766 18.828813
     spin moment: S , {S} =    0.88488   0.88488   0.00000   0.00000
   scf:    8    -2173.529307    -2289.523869    -2289.755934  0.486704 -3.990183 31.243887
     spin moment: S , {S} =    1.78511   1.78511   0.00000  -0.00000
   scf:    9    -2323.639601    -2326.799484    -2326.974617  0.316499 -3.522102  1.718307
     spin moment: S , {S} =    1.53259   1.53259   0.00000   0.00000
   scf:   10    -2325.666361    -2326.325304    -2326.486536  0.025474 -3.516193  4.018399
     spin moment: S , {S} =    1.44488   1.44488   0.00000   0.00000
   scf:   11    -2303.740774    -2317.606429    -2317.678726  0.119326 -3.356173 15.906938
     spin moment: S , {S} =    0.99323   0.99323   0.00000   0.00000
   scf:   12    -2326.038035    -2326.928795    -2327.116891  0.182458 -3.402652  1.195768
     spin moment: S , {S} =    1.65736   1.65736   0.00000   0.00000
   scf:   13    -2310.067452    -2321.018546    -2321.246666  0.131617 -3.653274 12.581479
     spin moment: S , {S} =    2.02608   2.02608   0.00000  -0.00000
   scf:   14    -2326.257918    -2326.962572    -2327.141716  0.142343 -3.501564  0.936400
     spin moment: S , {S} =    1.61556   1.61556   0.00000   0.00000
   scf:   15    -2326.987838    -2326.989979    -2327.173952  0.010867 -3.525435  0.221207
     spin moment: S , {S} =    1.65134   1.65134   0.00000   0.00000
   scf:   16    -2326.988839    -2326.990016    -2327.172914  0.002523 -3.536162  0.331909
     spin moment: S , {S} =    1.64290   1.64290   0.00000   0.00000
   scf:   17    -2326.986515    -2326.989740    -2327.173996  0.003110 -3.533287  0.163988
     spin moment: S , {S} =    1.65295   1.65295   0.00000   0.00000
   scf:   18    -2326.991338    -2326.990613    -2327.174334  0.001464 -3.532199  0.194892
     spin moment: S , {S} =    1.64920   1.64920   0.00000   0.00000
   scf:   19    -2326.991494    -2326.991070    -2327.174489  0.000850 -3.529485  0.205115
     spin moment: S , {S} =    1.64772   1.64772   0.00000   0.00000
   scf:   20    -2326.996989    -2326.994037    -2327.176766  0.003733 -3.515341  0.211563
     spin moment: S , {S} =    1.64885   1.64885   0.00000   0.00000
   scf:   21    -2326.994901    -2326.994469    -2327.177107  0.000519 -3.514118  0.209660
     spin moment: S , {S} =    1.64910   1.64910   0.00000   0.00000
   scf:   22    -2327.021906    -2327.007895    -2327.186074  0.016203 -3.503172  0.057138
     spin moment: S , {S} =    1.65053   1.65053   0.00000   0.00000
   scf:   23    -2327.009641    -2327.008769    -2327.186421  0.001668 -3.502487  0.046435
     spin moment: S , {S} =    1.65042   1.65042   0.00000   0.00000
   scf:   24    -2327.009434    -2327.009112    -2327.186508  0.000688 -3.500606  0.038387
     spin moment: S , {S} =    1.65068   1.65068   0.00000  -0.00000
   scf:   25    -2327.009219    -2327.009165    -2327.186530  0.000082 -3.500279  0.037773
     spin moment: S , {S} =    1.65077   1.65077   0.00000  -0.00000
   scf:   26    -2327.009549    -2327.009357    -2327.186611  0.000210 -3.499409  0.036633
     spin moment: S , {S} =    1.65109   1.65109   0.00000   0.00000
   scf:   27    -2327.010478    -2327.009912    -2327.186833  0.000964 -3.498029  0.034663
     spin moment: S , {S} =    1.65184   1.65184   0.00000  -0.00000
   scf:   28    -2327.010405    -2327.010157    -2327.186932  0.000547 -3.497567  0.035336
     spin moment: S , {S} =    1.65231   1.65231   0.00000  -0.00000
   scf:   29    -2327.010978    -2327.010567    -2327.187229  0.000503 -3.495921  0.028050
     spin moment: S , {S} =    1.65493   1.65493   0.00000   0.00000
   scf:   30    -2327.011790    -2327.011171    -2327.187570  0.000766 -3.492958  0.029716
     spin moment: S , {S} =    1.65802   1.65802   0.00000   0.00000
   scf:   31    -2327.013181    -2327.012145    -2327.187950  0.001195 -3.488036  0.029057
     spin moment: S , {S} =    1.66264   1.66264   0.00000   0.00000
   scf:   32    -2327.012619    -2327.012380    -2327.187995  0.000590 -3.487526  0.027798
     spin moment: S , {S} =    1.66368   1.66368   0.00000   0.00000
   scf:   33    -2327.012614    -2327.012496    -2327.188019  0.000381 -3.487666  0.026951
     spin moment: S , {S} =    1.66467   1.66467   0.00000   0.00000
   scf:   34    -2327.012413    -2327.012458    -2327.188075  0.000386 -3.488519  0.023782
     spin moment: S , {S} =    1.66672   1.66672   0.00000   0.00000
   scf:   35    -2327.012656    -2327.012562    -2327.188161  0.000948 -3.488332  0.013831
     spin moment: S , {S} =    1.67119   1.67119   0.00000   0.00000
   scf:   36    -2327.012646    -2327.012604    -2327.188169  0.000095 -3.488395  0.011916
     spin moment: S , {S} =    1.67188   1.67188   0.00000   0.00000
   scf:   37    -2327.012809    -2327.012707    -2327.188175  0.000317 -3.490033  0.009291
     spin moment: S , {S} =    1.67340   1.67340   0.00000   0.00000
   scf:   38    -2327.012727    -2327.012717    -2327.188179  0.000025 -3.490213  0.009418
     spin moment: S , {S} =    1.67372   1.67372   0.00000   0.00000
   scf:   39    -2327.013000    -2327.012857    -2327.188238  0.000730 -3.491820  0.008423
     spin moment: S , {S} =    1.67919   1.67919   0.00000  -0.00000
   scf:   40    -2327.012973    -2327.012915    -2327.188257  0.000293 -3.492126  0.007944
     spin moment: S , {S} =    1.68106   1.68106   0.00000  -0.00000
   scf:   41    -2327.013013    -2327.012964    -2327.188267  0.000097 -3.492398  0.007273
     spin moment: S , {S} =    1.68191   1.68191   0.00000   0.00000
   scf:   42    -2327.013024    -2327.012994    -2327.188272  0.000034 -3.492663  0.006775
     spin moment: S , {S} =    1.68234   1.68234   0.00000   0.00000
   scf:   43    -2327.013165    -2327.013079    -2327.188291  0.000156 -3.493436  0.007321
     spin moment: S , {S} =    1.68433   1.68433   0.00000  -0.00000
   scf:   44    -2327.013144    -2327.013111    -2327.188299  0.000094 -3.493632  0.007425
     spin moment: S , {S} =    1.68521   1.68521   0.00000  -0.00000
   scf:   45    -2327.013360    -2327.013235    -2327.188326  0.000316 -3.493957  0.008947
     spin moment: S , {S} =    1.68810   1.68810   0.00000   0.00000
   scf:   46    -2327.013291    -2327.013263    -2327.188331  0.000034 -3.494007  0.009031
     spin moment: S , {S} =    1.68852   1.68852   0.00000   0.00000
   scf:   47    -2327.013802    -2327.013532    -2327.188373  0.000301 -3.494917  0.007637
     spin moment: S , {S} =    1.69241   1.69241   0.00000  -0.00000
   scf:   48    -2327.013686    -2327.013609    -2327.188386  0.000125 -3.495267  0.007239
     spin moment: S , {S} =    1.69411   1.69411   0.00000  -0.00000
   scf:   49    -2327.013791    -2327.013700    -2327.188403  0.000201 -3.495621  0.007285
     spin moment: S , {S} =    1.69654   1.69654   0.00000   0.00000
   scf:   50    -2327.013746    -2327.013723    -2327.188407  0.000044 -3.495658  0.007322
     spin moment: S , {S} =    1.69711   1.69711   0.00000   0.00000
   scf:   51    -2327.014098    -2327.013909    -2327.188433  0.000297 -3.495817  0.006066
     spin moment: S , {S} =    1.70092   1.70092   0.00000  -0.00000
   scf:   52    -2327.014210    -2327.014059    -2327.188452  0.000230 -3.496006  0.005570
     spin moment: S , {S} =    1.70394   1.70394   0.00000  -0.00000
   scf:   53    -2327.014249    -2327.014154    -2327.188465  0.000191 -3.496294  0.005433
     spin moment: S , {S} =    1.70654   1.70654   0.00000   0.00000
   scf:   54    -2327.014188    -2327.014171    -2327.188468  0.000042 -3.496347  0.005403
     spin moment: S , {S} =    1.70712   1.70712   0.00000   0.00000
   scf:   55    -2327.014795    -2327.014474    -2327.188516  0.000720 -3.497014  0.004820
     spin moment: S , {S} =    1.71703   1.71703   0.00000  -0.00000
   scf:   56    -2327.014586    -2327.014530    -2327.188524  0.000130 -3.497072  0.004698
     spin moment: S , {S} =    1.71883   1.71883   0.00000  -0.00000
   scf:   57    -2327.014716    -2327.014622    -2327.188536  0.000219 -3.496967  0.004439
     spin moment: S , {S} =    1.72193   1.72193   0.00000   0.00000
   scf:   58    -2327.014591    -2327.014607    -2327.188541  0.000090 -3.497008  0.004392
     spin moment: S , {S} =    1.72296   1.72296   0.00000  -0.00000
   scf:   59    -2327.014489    -2327.014548    -2327.188547  0.000095 -3.496782  0.004278
     spin moment: S , {S} =    1.72432   1.72432   0.00000  -0.00000
   scf:   60    -2327.014244    -2327.014395    -2327.188534  0.000250 -3.496263  0.004416
     spin moment: S , {S} =    1.72112   1.72112   0.00000   0.00000
   scf:   61    -2327.014396    -2327.014395    -2327.188535  0.000024 -3.496230  0.004387
     spin moment: S , {S} =    1.72146   1.72146   0.00000   0.00000
   scf:   62    -2327.014499    -2327.014447    -2327.188544  0.000155 -3.496333  0.004251
     spin moment: S , {S} =    1.72366   1.72366   0.00000  -0.00000
   scf:   63    -2327.014443    -2327.014445    -2327.188544  0.000006 -3.496340  0.004248
     spin moment: S , {S} =    1.72371   1.72371   0.00000  -0.00000
   scf:   64    -2327.014444    -2327.014444    -2327.188544  0.000006 -3.496351  0.004250
     spin moment: S , {S} =    1.72370   1.72370   0.00000   0.00000
   scf:   65    -2327.014438    -2327.014441    -2327.188544  0.000006 -3.496340  0.004254
     spin moment: S , {S} =    1.72362   1.72362   0.00000   0.00000
   scf:   66    -2327.014434    -2327.014437    -2327.188544  0.000011 -3.496322  0.004247
     spin moment: S , {S} =    1.72366   1.72366   0.00000   0.00000
   scf:   67    -2327.014460    -2327.014448    -2327.188550  0.000102 -3.496358  0.004142
     spin moment: S , {S} =    1.72522   1.72522   0.00000   0.00000
   scf:   68    -2327.014464    -2327.014456    -2327.188554  0.000079 -3.496423  0.004065
     spin moment: S , {S} =    1.72644   1.72644   0.00000   0.00000
   scf:   69    -2327.014438    -2327.014447    -2327.188558  0.000075 -3.496496  0.003978
     spin moment: S , {S} =    1.72771   1.72771   0.00000  -0.00000
   scf:   70    -2327.014364    -2327.014405    -2327.188561  0.000087 -3.496407  0.003865
     spin moment: S , {S} =    1.72889   1.72889   0.00000  -0.00000
   scf:   71    -2327.014391    -2327.014398    -2327.188564  0.000069 -3.496389  0.003776
     spin moment: S , {S} =    1.73004   1.73004   0.00000   0.00000
   scf:   72    -2327.014464    -2327.014429    -2327.188579  0.000307 -3.496545  0.003463
     spin moment: S , {S} =    1.73477   1.73477   0.00000   0.00000
   scf:   73    -2327.014441    -2327.014435    -2327.188581  0.000045 -3.496573  0.003418
     spin moment: S , {S} =    1.73547   1.73547   0.00000   0.00000
   scf:   74    -2327.014815    -2327.014595    -2327.188631  0.001363 -3.497363  0.002414
     spin moment: S , {S} =    1.75668   1.75668   0.00000  -0.00000
   scf:   75    -2327.014593    -2327.014594    -2327.188631  0.000007 -3.497364  0.002049
     spin moment: S , {S} =    1.75682   1.75682   0.00000  -0.00000
   scf:   76    -2327.014659    -2327.014624    -2327.188640  0.000349 -3.497548  0.001630
     spin moment: S , {S} =    1.76237   1.76237   0.00000   0.00000
   scf:   77    -2327.014619    -2327.014622    -2327.188640  0.000026 -3.497531  0.001655
     spin moment: S , {S} =    1.76200   1.76200   0.00000   0.00000
   scf:   78    -2327.014589    -2327.014605    -2327.188635  0.000190 -3.497418  0.001851
     spin moment: S , {S} =    1.75910   1.75910   0.00000  -0.00000
   scf:   79    -2327.014618    -2327.014612    -2327.188637  0.000055 -3.497446  0.001793
     spin moment: S , {S} =    1.76000   1.76000   0.00000  -0.00000
   scf:   80    -2327.014631    -2327.014621    -2327.188639  0.000089 -3.497494  0.001702
     spin moment: S , {S} =    1.76140   1.76140   0.00000   0.00000
   scf:   81    -2327.014819    -2327.014712    -2327.188653  0.000725 -3.497872  0.001239
     spin moment: S , {S} =    1.77317   1.77317   0.00000  -0.00000
   scf:   82    -2327.014779    -2327.014744    -2327.188656  0.000254 -3.498000  0.001013
     spin moment: S , {S} =    1.77730   1.77730   0.00000  -0.00000
   scf:   83    -2327.014872    -2327.014805    -2327.188660  0.000471 -3.498230  0.000464
     spin moment: S , {S} =    1.78499   1.78499   0.00000   0.00000
   scf:   84    -2327.014827    -2327.014815    -2327.188661  0.000220 -3.498326  0.000505
     spin moment: S , {S} =    1.78847   1.78847   0.00000  -0.00000
   scf:   85    -2327.014812    -2327.014813    -2327.188661  0.000002 -3.498325  0.000507
     spin moment: S , {S} =    1.78852   1.78852   0.00000  -0.00000

SCF Convergence by DM+H criterion
max |DM_out - DM_in|         :     0.0000024970
max |H_out - H_in|      (eV) :     0.0005069548
SCF cycle converged after 85 iterations

Using DM_out to compute the final energy and forces
No. of atoms with KB's overlaping orbs in proc 0. Max # of overlaps:       3      45

siesta: E_KS(eV) =            -2327.0148

siesta: E_KS - E_eggbox =     -2327.0148
     spin moment: S , {S} =    1.78852   1.78852   0.00000  -0.00000

siesta: Atomic forces (eV/Ang):
----------------------------------------
   Tot    0.000000   -0.000000   -0.000000
----------------------------------------
   Max    0.056949
   Res    0.026845    sqrt( Sum f_i^2 / 3N )
----------------------------------------
   Max    0.056949    constrained

Stress tensor Voigt[x,y,z,yz,xz,xy] (kbar):        6.66        6.66       -1.56       -0.00       -0.00        0.00
(Free)E + p*V (eV/cell)    -2328.2338
Target enthalpy (eV/cell)    -2327.1887

mulliken: Atomic and Orbital Populations:

Species: fe_nc               

Atom      Orb        Charge      Spin       Svec
----------------------------------------------------------------
    1  1 4s         1.33936   0.02203     -0.014   0.000  -0.017
    1  2 4s         0.10628   0.06317      0.004   0.000   0.063
    1  3 3dxy       1.22796   0.65160      0.059   0.000   0.649
    1  4 3dyz       1.24666   0.48501     -0.000   0.000   0.485
    1  5 3dz2       1.27155   0.47660      0.011   0.000   0.476
    1  6 3dxz       1.24666   0.48501     -0.000   0.000   0.485
    1  7 3dx2-y2    1.22657   0.65305      0.059   0.000   0.650
    1  8 3dxy       0.04756   0.06835      0.010   0.000   0.068
    1  9 3dyz       0.03199   0.06031      0.004   0.000   0.060
    1 10 3dz2       0.07235   0.04664      0.003   0.000   0.047
    1 11 3dxz       0.03199   0.06031      0.004   0.000   0.060
    1 12 3dx2-y2    0.04754   0.06832      0.010   0.000   0.068
    1 13 4Ppy       0.02839   0.00572      0.001   0.000  -0.006
    1 14 4Ppz       0.00639   0.00472      0.004   0.000   0.002
    1 15 4Ppx       0.02839   0.00572      0.001   0.000  -0.006
    1     Total     7.95963   3.08855      0.157   0.000   3.085

    2  1 4s         0.86579   0.01540     -0.015   0.000   0.000
    2  2 4s         0.19007   0.03201      0.032   0.000   0.000
    2  3 3dxy       1.43247   0.46889      0.469   0.000   0.000
    2  4 3dyz       1.29866   0.11905      0.119   0.000   0.000
    2  5 3dz2       1.17803   0.13267      0.133   0.000   0.000
    2  6 3dxz       1.29866   0.11905      0.119   0.000   0.000
    2  7 3dx2-y2    1.43215   0.46928      0.469   0.000   0.000
    2  8 3dxy       0.00168   0.03719      0.037   0.000   0.000
    2  9 3dyz      -0.01664   0.01893      0.019   0.000   0.000
    2 10 3dz2       0.07437   0.00955      0.010   0.000  -0.000
    2 11 3dxz      -0.01664   0.01893      0.019   0.000   0.000
    2 12 3dx2-y2    0.00161   0.03715      0.037   0.000   0.000
    2 13 4Ppy       0.11939   0.01144      0.011   0.000  -0.000
    2 14 4Ppz       0.10174   0.00418      0.004   0.000   0.000
    2 15 4Ppx       0.11939   0.01144      0.011   0.000  -0.000
    2     Total     8.08073   1.47436      1.474   0.000   0.000

    3  1 4s         1.33936   0.02203     -0.014   0.000   0.017
    3  2 4s         0.10628   0.06317      0.004   0.000  -0.063
    3  3 3dxy       1.22796   0.65160      0.059   0.000  -0.649
    3  4 3dyz       1.24666   0.48501     -0.000   0.000  -0.485
    3  5 3dz2       1.27155   0.47660      0.011   0.000  -0.476
    3  6 3dxz       1.24666   0.48501     -0.000   0.000  -0.485
    3  7 3dx2-y2    1.22657   0.65305      0.059   0.000  -0.650
    3  8 3dxy       0.04756   0.06835      0.010   0.000  -0.068
    3  9 3dyz       0.03199   0.06031      0.004   0.000  -0.060
    3 10 3dz2       0.07235   0.04664      0.003   0.000  -0.047
    3 11 3dxz       0.03199   0.06031      0.004   0.000  -0.060
    3 12 3dx2-y2    0.04754   0.06832      0.010   0.000  -0.068
    3 13 4Ppy       0.02839   0.00572      0.001   0.000   0.006
    3 14 4Ppz       0.00639   0.00472      0.004   0.000  -0.002
    3 15 4Ppx       0.02839   0.00572      0.001   0.000   0.006
    3     Total     7.95963   3.08855      0.157   0.000  -3.085

----------------------------------------------------------------
Total              24.00000   1.78852      1.789   0.000  -0.000


siesta: Program's energy decomposition (eV):
siesta: Ebs     =      -138.243112
siesta: Eions   =      2141.484345
siesta: Ena     =        95.469235
siesta: Ekin    =      2356.533066
siesta: Enl     =     -1464.234229
siesta: Eso     =         0.000000
siesta: Edftu   =         0.000000
siesta: DEna    =       -28.365868
siesta: DUscf   =         2.904872
siesta: DUext   =         0.000000
siesta: Exc     =     -1147.837544
siesta: eta*DQ  =         0.000000
siesta: Emadel  =         0.000000
siesta: Emeta   =         0.000000
siesta: Emolmec =         0.000000
siesta: Ekinion =         0.000000
siesta: Eharris =     -2327.014812
siesta: Etot    =     -2327.014813
siesta: FreeEng =     -2327.188661

siesta: Final energy (eV):
siesta:  Band Struct. =    -138.243112
siesta:       Kinetic =    2356.533066
siesta:       Hartree =    1407.460602
siesta:       Edftu   =       0.000000
siesta:       Eso     =       0.000000
siesta:    Ext. field =       0.000000
siesta:   Exch.-corr. =   -1147.837544
siesta:  Ion-electron =   -4749.473086
siesta:       Ion-ion =    -193.697851
siesta:       Ekinion =       0.000000
siesta:         Total =   -2327.014813
siesta:         Fermi =      -3.498325

siesta: Atomic forces (eV/Ang):
siesta:      1    0.000000    0.000000   -0.056946
siesta:      2    0.000000   -0.000000   -0.000003
siesta:      3    0.000000   -0.000000    0.056949
siesta: ----------------------------------------
siesta:    Tot    0.000000   -0.000000   -0.000000

siesta: Stress tensor (static) (eV/Ang**3):
siesta:     0.004160    0.000000   -0.000000
siesta:     0.000000    0.004160   -0.000000
siesta:    -0.000000   -0.000000   -0.000973

siesta: Cell volume =        426.771459 Ang**3

siesta: Pressure (static):
siesta:                Solid            Molecule  Units
siesta:          -0.00002667         -0.00002480  Ry/Bohr**3
siesta:          -0.00244887         -0.00227733  eV/Ang**3
siesta:          -3.92356366         -3.64872104  kBar
(Free)E+ p_basis*V_orbitals  =       -2324.918732
(Free)Eharris+ p_basis*V_orbitals  =       -2324.918731
     spin moment: S , {S} =    1.78852   1.78852   0.00000  -0.00000

cite: Please see "fe_clust_noncollinear.bib" for an exhaustive BiBTeX file.
cite: Please clearly indicate Siesta version in published work: v4.1-b4-351
cite: This calculation has made use of the following articles
cite: which are encouraged to be cited in a published work.
        Primary SIESTA paper
          DOI: www.doi.org/10.1088/0953-8984/14/11/302

>> End of run:  22-JAN-2021  21:58:55
Job completed
