Siesta Version  : v4.1-b4-351
Architecture    : x86_64-linux-n-62-26-19
Compiler version: GNU Fortran (GCC) 9.3.0
Compiler flags  : mpifort -m64 -fPIC -O3 -march=native -ftree-vectorize -fexpensive-optimizatioons -funroll-loops -fprefetch-loop-arrays -fno-second-underscore  -flto
PP flags        : -I/dtu/sw/dcc/SL73/2020-aug/generic/build-tools/1.0/include -I/dtu/sw/dcc/SL773/2020-aug/generic/gcc/9.3.0/include -I/dtu/sw/dcc/SL73/2020-aug/generic/gcc/9.3.0/include -I/dtu/sw/dcc/SL73/2020-aug/XeonE5-2660v3/gnu/9.3.0/zlib/1.2.11/include -I/dtu/sw/dcc/SL73/2020-aug/generic/numactl/2.0.12/include -I/dtu/sw/dcc/SL73/2020-aug/XeonE5-2660v3/gnu/9.3.0/libxml2/2.9.10/include -I/dtu/sw/dcc/SL73/2020-aug/XeonE5-2660v3/gnu/9.3.0/hwloc/2.2.0/include -I/dtu/sw/dcc/SL73/2020-aug/XeonE5-2660v3/gnu/9.3.0/knem/1.1.4/include -I/dtu/sw/dcc/SL73/2020-aug/XeonE5-2660v3/gnu/9.3.0/ucx/1.8.1/include -I/dtu/sw/dcc/SL73/2020-aug/XeonE5-2660v3/gnu/9.3.0/openmpi/4.0.4/include -I/dtu/sw/dcc/SL73/2020-aug/XeonE5-2660v3/gnu/9.3.0/szip/2.1.1/include -I/dtu/sw/dcc/SL73/2020-aug/XeonE5-2660v3/gnu/9.3.0/hdf5/1.12.0/include -I/dtu/sw/dcc/SL73/2020-aug/XeonE5-2660v3/gnu/9.3.0/pnetcdf/1.12.1/include -I/dtu/sw/dcc/SL73/2020-aug/generic/gen-zlib/1.2.11/include -I/dtu/sw/dcc/SL73/2020-aug/generic/openssl/1.1.1/include -I/dtu/sw/dcc/SL73/2020-aug/generic/libssh2/1.8.2/include -I/dtu/sw/dcc/SL73/2020-aug/generic/curl/7.65.1/include -I/dtu/sw/dcc/SL73/2020-aug/XeonE5-2660v3/gnu/9.3.0/netcdf/4.7.4/include -I/dtu/sw/dcc/SL73/2020-aug/XeonE5-2660v3/gnu/9.3.0/flook/0.8.1/include -I/dtu/sw/dcc/SL73/2020-aug/XeonE5-2660v3/gnu/9.3.0/fftw/3.3.8/include -I/dtu/sw/dcc/SL73/2020-aug/XeonE5-2660v3/gnu/9.3.0/parmetis/4.0.3/include -I/dtu/sw/dcc/SL73/2020-aug/XeonE5-2660v3/gnu/9.3.0/scalapack/2.1.0/include -I/dtu/sw/dcc/SL73/2020-aug/XeonE5-2660v3/gnu/9.3.0/lapack/3.9.0/include -I/dtu/sw/dcc/SL73/2020-aug/XeonE5-2660v3/gnu/9.3.0/blis/0.7.0/include -I/dtu/sw/dcc/SL73/2020-aug/XeonE5-2660v3/gnu/9.3.0/scotch/6.0.9/include -I/dtu/sw/dcc/SL73/2020-aug/XeonE5-2660v3/gnu/9.3.0/mumps/5.3.3/include -I/dtu/sw/dcc/SL73/2020-aug/XeonE5-2660v3/gnu/9.3.0/elpa/2020.05.001/include -DSIESTA__ELPA -DMPI -DFC_HAVE_FLUSH -DFC_HAVE_ABORT -DCDF -DCDF4 -DSIESTA__FLOOK  -DNCDF -DNCDF_4 -DNCDF_PARALLEL -DTS_NOCHECKS -DSIESTA__METIS -DSIESTA__MUMPS -DSIESTA__MRRR -I/dtu/sw/dcc/SL73/2020-aug/XeonE5-2660v3/gnu/9.3.0/elpa/2020.05.001/include/elpa
Libraries       : libncdf.a libfdict.a -lnetcdff -lnetcdf -lpnetcdf -lhdf5_hl -lhdf5 -lz  -lzmuumps -lmumps_common -lesmumps -lscotch -lscotcherr -lpord -lparmetis -lmetis -lelpa -lscalapack -llapack -lblis  -L/dtu/sw/dcc/SL73/2020-aug/XeonE5-2660v3/gnu/9.3.0/flook/0.8.1/lib -Wl,-rpath=/dtu/sw/dcc/SL73/2020-aug/XeonE5-2660v3/gnu/9.3.0/flook/0.8.1/lib -lflookall -ldl  -flto -fuse-linker-plugin  -lmetis
PARALLEL version
NetCDF support
NetCDF-4 support
NetCDF-4 MPI-IO support
METIS ordering support
Lua support

* Running on 8 nodes in parallel
>> Start of run:  22-JAN-2021  21:58:56

                           ***********************       
                           *  WELCOME TO SIESTA  *       
                           ***********************       

reinit: Reading from ../fe_clust_noncollinear-gga.fdf

reinit: -----------------------------------------------------------------------
reinit: System Name: Linear Fe3 cluster non-collinear spin with GGA-PBE
reinit: -----------------------------------------------------------------------
reinit: System Label: fe_clust_noncollinear-gga
reinit: -----------------------------------------------------------------------

initatom: Reading input for the pseudopotentials and atomic orbitals ----------
Species number:   1 Atomic number:   26 Label: Fe

Ground state valence configuration:   4s02  3d06
Reading pseudopotential information in formatted form from Fe.psf

Pseudopotential generated from a relativistic atomic calculation

Valence configuration for pseudopotential generation:
4s( 2.00) rc: 2.00
4p( 0.00) rc: 2.00
3d( 6.00) rc: 2.00
4f( 0.00) rc: 2.00
For Fe, standard SIESTA heuristics set lmxkb to 3
 (one more than the basis l, including polarization orbitals).
Use PS.lmax or PS.KBprojectors blocks to override.
Fe: nkbl increased for l=1 due to the presence of a polarization orbital

<basis_specs>
===============================================================================
Fe                   Z=  26    Mass=  55.850        Charge= 0.17977+309
Lmxo=2 Lmxkb= 3    BasisType=split      Semic=F
L=0  Nsemic=0  Cnfigmx=4
          i=1  nzeta=2  polorb=1  (4s)
            splnorm:   0.15000    
               vcte:    0.0000    
               rinn:    0.0000    
               qcoe:    0.0000    
               qyuk:    0.0000    
               qwid:   0.10000E-01
                rcs:    0.0000      0.0000    
            lambdas:    1.0000      1.0000    
L=1  Nsemic=0  Cnfigmx=4
L=2  Nsemic=0  Cnfigmx=3
          i=1  nzeta=2  polorb=0  (3d)
            splnorm:   0.15000    
               vcte:    0.0000    
               rinn:    0.0000    
               qcoe:    0.0000    
               qyuk:    0.0000    
               qwid:   0.10000E-01
                rcs:    0.0000      0.0000    
            lambdas:    1.0000      1.0000    
-------------------------------------------------------------------------------
L=0  Nkbl=1  erefs: 0.17977+309
L=1  Nkbl=2  erefs: 0.17977+309 0.17977+309
L=2  Nkbl=1  erefs: 0.17977+309
L=3  Nkbl=1  erefs: 0.17977+309
===============================================================================
</basis_specs>

atom: Called for Fe                    (Z =  26)

read_vps: Pseudopotential generation method:
read_vps: ATM3      Troullier-Martins                       
Valence charge for ps generation:    8.00000

read_vps: Pseudopotential includes a core correction:
read_vps: Pseudo-core for xc-correction

xc_check: Exchange-correlation functional:
xc_check: GGA Perdew, Burke & Ernzerhof 1996
V l=0 = -2*Zval/r beyond r=  2.7645
V l=1 = -2*Zval/r beyond r=  2.7645
V l=2 = -2*Zval/r beyond r=  2.7645
V l=3 = -2*Zval/r beyond r=  2.7645
All V_l potentials equal beyond r=  1.9726
This should be close to max(r_c) in ps generation
All pots = -2*Zval/r beyond r=  2.7645
Using large-core scheme for Vlocal

atom: Estimated core radius    2.76453
atom: Maximum radius for 4*pi*r*r*local-pseudopot. charge    3.05528
atom: Maximum radius for r*vlocal+2*Zval:    2.79930
GHOST: No ghost state for L =  0
KBgen: More than one KB projector for l=  1
KBgen: ghost states analysis will be not performed
GHOST: No ghost state for L =  2
GHOST: No ghost state for L =  3

KBgen: Kleinman-Bylander projectors: 
   l= 0   rc=  2.047986   el= -0.388305   Ekb=  4.259322   kbcos=  0.262992
   l= 1   rc=  2.047986   el= -0.097543   Ekb=  2.850785   kbcos=  0.194191
   l= 1   rc=  2.047986   el=  0.001102   Ekb=  2.139338   kbcos=  0.003195
   l= 2   rc=  2.022544   el= -0.553240   Ekb=-12.567334   kbcos= -0.683368
   l= 3   rc=  2.047986   el=  0.003178   Ekb= -1.649997   kbcos= -0.006611

KBgen: Total number of  Kleinman-Bylander projectors:   19
atom: -------------------------------------------------------------------------

atom: SANKEY-TYPE ORBITALS:
atom: Selected multiple-zeta basis: split     

SPLIT: Orbitals with angular momentum L= 0

SPLIT: Basis orbitals for state 4s

SPLIT: PAO cut-off radius determined from an
SPLIT: energy shift=  0.020000 Ry

   izeta = 1
                 lambda =    1.000000
                     rc =    6.308440
                 energy =   -0.368145
                kinetic =    0.348842
    potential(screened) =   -0.716987
       potential(ionic) =   -6.129340

   izeta = 2
                 rmatch =    5.926225
              splitnorm =    0.150000
                 energy =   -0.314432
                kinetic =    0.521394
    potential(screened) =   -0.835826
       potential(ionic) =   -6.581555

SPLIT: Orbitals with angular momentum L= 2

SPLIT: Basis orbitals for state 3d

SPLIT: PAO cut-off radius determined from an
SPLIT: energy shift=  0.020000 Ry

   izeta = 1
                 lambda =    1.000000
                     rc =    3.731752
                 energy =   -0.535586
                kinetic =    9.598648
    potential(screened) =  -10.134233
       potential(ionic) =  -18.975344

   izeta = 2
                 rmatch =    2.126247
              splitnorm =    0.150000
                 energy =   -0.064651
                kinetic =   13.267357
    potential(screened) =  -13.332008
       potential(ionic) =  -22.743777

POLgen: Perturbative polarization orbital with L=  1

POLgen: Polarization orbital for state 4s

   izeta = 1
                     rc =    6.308440
                 energy =   -0.029040
                kinetic =    0.656471
    potential(screened) =   -0.685511
       potential(ionic) =   -5.738393
atom: Total number of Sankey-type orbitals: 15

atm_pop: Valence configuration (for local Pseudopot. screening):
 4s( 2.00)                                                            
 4p( 0.00)                                                            
 3d( 6.00)                                                            
Vna: chval, zval:    8.00000   8.00000

Vna:  Cut-off radius for the neutral-atom potential:   6.308440
comcore: Pseudo-core radius Rcore=  3.778693

atom: _________________________________________________________________________

prinput: Basis input ----------------------------------------------------------

PAO.BasisType split     

%block ChemicalSpeciesLabel
    1   26 Fe                      # Species index, atomic number, species label
%endblock ChemicalSpeciesLabel

%block PAO.Basis                 # Define Basis set
Fe                    2                    # Species label, number of l-shells
 n=4   0   2 P   1                   # n, l, Nzeta, Polarization, NzetaPol
   6.308      5.926   
   1.000      1.000   
 n=3   2   2                         # n, l, Nzeta 
   3.732      2.126   
   1.000      1.000   
%endblock PAO.Basis

prinput: ----------------------------------------------------------------------

Dumping basis to NetCDF file Fe.ion.nc
coor:   Atomic-coordinates input format  =     Cartesian coordinates
coor:                                            (in Bohr units)

siesta: Atomic coordinates (Bohr) and species
siesta:      0.00000   0.00000   3.64400  1        1
siesta:      0.00000   0.00000   0.00000  1        2
siesta:      0.00000   0.00000  -3.64400  1        3

siesta: System type = slab      

initatomlists: Number of atoms, orbitals, and projectors:      3    45    57

siesta: ******************** Simulation parameters ****************************
siesta:
siesta: The following are some of the parameters of the simulation.
siesta: A complete list of the parameters used, including default values,
siesta: can be found in file out.fdf
siesta:
redata: Spin configuration                          = non-collinear
redata: Number of spin components                   = 4
redata: Time-Reversal Symmetry                      = F
redata: Spin spiral                                 = F
redata: Long output                                 =   F
redata: Number of Atomic Species                    =        1
redata: Charge density info will appear in .RHO file
redata: Write Mulliken Pop.                         = Atomic and Orbital charges
redata: Matel table size (NRTAB)                    =     1024
redata: Mesh Cutoff                                 =   150.0000 Ry
redata: Net charge of the system                    =     0.0000 |e|
redata: Min. number of SCF Iter                     =        0
redata: Max. number of SCF Iter                     =     1000
redata: SCF mix quantity                            = Hamiltonian
redata: Mix DM or H after convergence               =   F
redata: Recompute H after scf cycle                 =   F
redata: Mix DM in first SCF step                    =   T
redata: Write Pulay info on disk                    =   F
redata: New DM Occupancy tolerance                  = 0.000000000001
redata: No kicks to SCF
redata: DM Mixing Weight for Kicks                  =     0.5000
redata: Require Harris convergence for SCF          =   F
redata: Harris energy tolerance for SCF             =     0.000100 eV
redata: Require DM convergence for SCF              =   T
redata: DM tolerance for SCF                        =     0.000100
redata: Require EDM convergence for SCF             =   F
redata: EDM tolerance for SCF                       =     0.001000 eV
redata: Require H convergence for SCF               =   T
redata: Hamiltonian tolerance for SCF               =     0.001000 eV
redata: Require (free) Energy convergence for SCF   =   F
redata: (free) Energy tolerance for SCF             =     0.000100 eV
redata: Using Saved Data (generic)                  =   F
redata: Use continuation files for DM               =   T
redata: Neglect nonoverlap interactions             =   F
redata: Method of Calculation                       = Diagonalization
redata: Electronic Temperature                      =  1160.4438 K
redata: Fix the spin of the system                  =   F
redata: Dynamics option                             = Single-point calculation
mix.SCF: Pulay mixing                            = Pulay
mix.SCF:    Variant                              = stable
mix.SCF:    History steps                        = 4
mix.SCF:    Linear mixing weight                 =     0.010000
mix.SCF:    Mixing weight                        =     0.010000
mix.SCF:    SVD condition                        = 0.1000E-07
mix.SCF: Spin-component mixing                   all
redata: Save all siesta data in one NC              =   F
redata: ***********************************************************************

%block SCF.Mixers
  Pulay
%endblock SCF.Mixers

%block SCF.Mixer.Pulay
  # Mixing method
  method pulay
  variant stable

  # Mixing options
  weight 0.0100
  weight.linear 0.0100
  history 4
%endblock SCF.Mixer.Pulay

DM_history_depth set to one: no extrapolation allowed by default for geometry relaxation
Size of DM history Fstack: 1
Total number of electrons:    24.000000
Total ionic charge:    24.000000

* ProcessorY, Blocksize:    2   6


* Orbital distribution balance (max,min):     6     3


Time-reversal symmetry not used.

siesta: k-grid: Number of k-points =     1
siesta: k-grid: Cutoff (effective) =     3.175 Ang
siesta: k-grid: Supercell and displacements
siesta: k-grid:    1   0   0      0.000
siesta: k-grid:    0   1   0      0.000
siesta: k-grid:    0   0   1      0.000

diag: Algorithm                                     = D&C
diag: Parallel over k                               =   F
diag: Use parallel 2D distribution                  =   T
diag: Parallel block-size                           = 6
diag: Parallel distribution                         =     2 x     4
diag: Used triangular part                          = Lower
diag: Absolute tolerance                            =  0.100E-15
diag: Orthogonalization factor                      =  0.100E-05
diag: Memory factor                                 =  1.0000


ts: **************************************************************
ts: Save H and S matrices                           =    F
ts: Save DM and EDM matrices                        =    F
ts: Only save the overlap matrix S                  =    F
ts: **************************************************************

************************ Begin: TS CHECKS AND WARNINGS ************************
************************ End: TS CHECKS AND WARNINGS **************************


                     ====================================
                        Single-point calculation
                     ====================================

outcell: Unit cell vectors (Ang):
        6.350124    0.000000    0.000000
        0.000000    6.350124    0.000000
        0.000000    0.000000   10.583540

outcell: Cell vector modules (Ang)   :    6.350124    6.350124   10.583540
outcell: Cell angles (23,13,12) (deg):     90.0000     90.0000     90.0000
outcell: Cell volume (Ang**3)        :    426.7715
Gamma-point calculation with interaction between periodic images
Some features might not work optimally:
e.g. DM initialization from atomic data
<dSpData1D:S at geom step 0
  <sparsity:sparsity for geom step 0
    nrows_g=45 nrows=6 sparsity=.1333 nnzs=270, refcount: 7>
  <dData1D:(new from dSpData1D) n=270, refcount: 1>
refcount: 1>
new_DM -- step:     1
Initializing Density Matrix...

Attempting to read DM from file... Failed...
DM filled with atomic data (user-defined):
<dSpData2D:DM initialized from atoms
  <sparsity:sparsity for geom step 0
    nrows_g=45 nrows=6 sparsity=.1333 nnzs=270, refcount: 8>
  <dData2D:DM n=270 m=4, refcount: 1>
refcount: 1>
     spin moment: S , {S} =    1.50000   1.50000   0.00000   0.00000
No. of atoms with KB's overlaping orbs in proc 0. Max # of overlaps:       3      45
New grid distribution:   1
           1       1:   24    1:   12    1:   10
           2       1:   24    1:   12   11:   20
           3       1:   24    1:   12   21:   30
           4       1:   24    1:   12   31:   40
           5       1:   24   13:   24    1:   10
           6       1:   24   13:   24   11:   20
           7       1:   24   13:   24   21:   30
           8       1:   24   13:   24   31:   40

InitMesh: MESH =    48 x    48 x    80 =      184320
InitMesh: (bp) =    24 x    24 x    40 =       23040
InitMesh: Mesh cutoff (required, used) =   150.000   157.914 Ry
ExtMesh (bp) on 0 =    76 x    64 x    62 =      301568
New grid distribution:   2
           1      11:   24   11:   24    1:   14
           2       1:   10    1:   10    1:   14
           3      11:   24    1:   10   15:   40
           4       1:   10    1:   10   15:   40
           5      11:   24    1:   10    1:   14
           6       1:   10   11:   24    1:   14
           7      11:   24   11:   24   15:   40
           8       1:   10   11:   24   15:   40
New grid distribution:   3
           1      12:   24   12:   24    1:   19
           2       1:   12    1:   11    1:   19
           3       1:   12    1:   11   20:   40
           4      13:   24    1:   11   20:   40
           5       1:   11   12:   24    1:   19
           6      13:   24    1:   11    1:   19
           7      12:   24   12:   24   20:   40
           8       1:   11   12:   24   20:   40
Setting up quadratic distribution...
ExtMesh (bp) on 0 =    66 x    66 x    66 =      287496
PhiOnMesh: Number of (b)points on node 0 =                 2744
PhiOnMesh: nlist on node 0 =                21086

stepf: Fermi-Dirac step function

siesta: Program's energy decomposition (eV):
siesta: Ebs     =        56.225772
siesta: Eions   =      2135.854221
siesta: Ena     =        70.279367
siesta: Ekin    =      2415.247288
siesta: Enl     =     -1486.018936
siesta: Eso     =         0.000000
siesta: Edftu   =         0.000000
siesta: DEna    =       -13.386423
siesta: DUscf   =        35.265338
siesta: DUext   =         0.000000
siesta: Exc     =     -1184.692431
siesta: eta*DQ  =         0.000000
siesta: Emadel  =         0.000000
siesta: Emeta   =         0.000000
siesta: Emolmec =         0.000000
siesta: Ekinion =         0.000000
siesta: Eharris =     -2248.860027
siesta: Etot    =     -2299.160018
siesta: FreeEng =     -2299.171948

        iscf     Eharris(eV)        E_KS(eV)     FreeEng(eV)     dDmax    Ef(eV) dHmax(eV)
   scf:    1    -2248.860027    -2299.160018    -2299.171948  0.579297 -3.170696 33.158321
     spin moment: S , {S} =    0.57636   0.57636   0.00000   0.00000
timer: Routine,Calls,Time,% = IterSCF        1       0.203  13.98
   scf:    2    -2315.500579    -2307.677774    -2307.711940  0.041413 -3.044393 28.308356
     spin moment: S , {S} =    0.69135   0.69135   0.00000   0.00000
   scf:    3    -2199.915739    -2300.937914    -2301.194378  0.570884 -2.736359 25.745948
     spin moment: S , {S} =    2.04028   2.04028   0.00000   0.00000
   scf:    4    -1653.608330    -2042.303644    -2042.304521  0.537523 -2.401050 87.902460
     spin moment: S , {S} =    0.11089   0.11089   0.00000   0.00000
   scf:    5    -2159.015466    -2102.416476    -2102.426367  0.104411 -2.465465 77.861799
     spin moment: S , {S} =    0.23469   0.23469   0.00000   0.00000
   scf:    6    -1996.128956    -2282.103476    -2282.105412  1.114826 -3.182160 40.993236
     spin moment: S , {S} =    0.44656   0.44656   0.00000   0.00000
   scf:    7    -2294.704376    -2288.520882    -2288.524286  0.024075 -3.252259 38.308695
     spin moment: S , {S} =    0.48883   0.48883   0.00000   0.00000
   scf:    8    -2178.087086    -2238.336091    -2238.339745  0.363962 -1.397827 53.709135
     spin moment: S , {S} =    0.15074   0.15074   0.00000   0.00000
   scf:    9    -2350.215400    -2303.619989    -2303.679726  0.200368 -1.632947 28.626377
     spin moment: S , {S} =    0.71618   0.71618   0.00000  -0.00000
   scf:   10    -1958.664517    -2236.235715    -2236.452654  0.802770 -1.790104 50.806717
     spin moment: S , {S} =    1.41869   1.41869   0.00000   0.00000
   scf:   11    -2212.439614    -2313.787022    -2313.941408  0.775930 -1.370226 21.610690
     spin moment: S , {S} =    1.05931   1.05931   0.00000  -0.00000
   scf:   12    -2331.811457    -2324.210721    -2324.473096  0.121663 -1.358516 11.969931
     spin moment: S , {S} =    1.60468   1.60468   0.00000  -0.00000
   scf:   13    -2328.896012    -2329.211430    -2329.555272  0.162709 -1.533143  0.448413
     spin moment: S , {S} =    2.21498   2.21498   0.00000  -0.00000
   scf:   14    -2329.203385    -2329.207812    -2329.554417  0.009107 -1.498672  0.496496
     spin moment: S , {S} =    2.23331   2.23331   0.00000  -0.00000
   scf:   15    -2327.972463    -2328.830671    -2329.159546  0.045648 -1.438907  3.212590
     spin moment: S , {S} =    2.09149   2.09149   0.00000   0.00000
   scf:   16    -2329.171183    -2329.252083    -2329.590186  0.082133 -1.574728  0.477600
     spin moment: S , {S} =    2.32053   2.32053   0.00000   0.00000
   scf:   17    -2329.262939    -2329.260230    -2329.605266  0.020345 -1.475601  0.087563
     spin moment: S , {S} =    2.41109   2.41109   0.00000   0.00000
   scf:   18    -2329.259840    -2329.260048    -2329.605672  0.001021 -1.470988  0.078526
     spin moment: S , {S} =    2.41781   2.41781   0.00000   0.00000
   scf:   19    -2329.260736    -2329.260416    -2329.606064  0.001357 -1.471933  0.087224
     spin moment: S , {S} =    2.41605   2.41605   0.00000  -0.00000
   scf:   20    -2329.261250    -2329.260849    -2329.606512  0.001483 -1.472566  0.097703
     spin moment: S , {S} =    2.41586   2.41586   0.00000  -0.00000
   scf:   21    -2329.263540    -2329.262112    -2329.608406  0.003546 -1.465952  0.111788
     spin moment: S , {S} =    2.43515   2.43515   0.00000   0.00000
   scf:   22    -2329.262219    -2329.262161    -2329.608478  0.000123 -1.465786  0.111505
     spin moment: S , {S} =    2.43611   2.43611   0.00000   0.00000
   scf:   23    -2329.284063    -2329.269926    -2329.619320  0.026442 -1.454512  0.041457
     spin moment: S , {S} =    2.61842   2.61842   0.00000  -0.00000
   scf:   24    -2329.270341    -2329.270137    -2329.619505  0.000661 -1.454825  0.041419
     spin moment: S , {S} =    2.62145   2.62145   0.00000  -0.00000
   scf:   25    -2329.270775    -2329.270462    -2329.619821  0.001092 -1.455212  0.041340
     spin moment: S , {S} =    2.62715   2.62715   0.00000  -0.00000
   scf:   26    -2329.270947    -2329.270706    -2329.619992  0.000661 -1.456151  0.041280
     spin moment: S , {S} =    2.62989   2.62989   0.00000  -0.00000
   scf:   27    -2329.271018    -2329.270862    -2329.620094  0.000407 -1.456641  0.041238
     spin moment: S , {S} =    2.63159   2.63159   0.00000  -0.00000
   scf:   28    -2329.272948    -2329.271880    -2329.620817  0.002876 -1.458089  0.040943
     spin moment: S , {S} =    2.64500   2.64500   0.00000   0.00000
   scf:   29    -2329.271535    -2329.271705    -2329.620659  0.000553 -1.457993  0.040996
     spin moment: S , {S} =    2.64194   2.64194   0.00000   0.00000
   scf:   30    -2329.278041    -2329.274627    -2329.623481  0.009707 -1.459509  0.040094
     spin moment: S , {S} =    2.69886   2.69886   0.00000   0.00000
   scf:   31    -2329.276246    -2329.275421    -2329.624171  0.002548 -1.460361  0.039859
     spin moment: S , {S} =    2.71313   2.71313   0.00000   0.00000
   scf:   32    -2329.276346    -2329.275881    -2329.624515  0.001322 -1.460995  0.039739
     spin moment: S , {S} =    2.71969   2.71969   0.00000  -0.00000
   scf:   33    -2329.276236    -2329.276058    -2329.624650  0.000535 -1.461096  0.039691
     spin moment: S , {S} =    2.72231   2.72231   0.00000  -0.00000
   scf:   34    -2329.281127    -2329.278432    -2329.626564  0.007452 -1.461674  0.039026
     spin moment: S , {S} =    2.76136   2.76136   0.00000   0.00000
   scf:   35    -2329.281250    -2329.279766    -2329.627728  0.004590 -1.461394  0.038606
     spin moment: S , {S} =    2.78763   2.78763   0.00000   0.00000
   scf:   36    -2329.279900    -2329.279834    -2329.627778  0.000239 -1.461540  0.038587
     spin moment: S , {S} =    2.78845   2.78845   0.00000  -0.00000
   scf:   37    -2329.279848    -2329.279841    -2329.627782  0.000041 -1.461512  0.038585
     spin moment: S , {S} =    2.78846   2.78846   0.00000   0.00000
   scf:   38    -2329.279804    -2329.279821    -2329.627788  0.000375 -1.461591  0.038587
     spin moment: S , {S} =    2.78942   2.78942   0.00000  -0.00000
   scf:   39    -2329.280561    -2329.280184    -2329.628080  0.001119 -1.461612  0.038485
     spin moment: S , {S} =    2.79589   2.79589   0.00000   0.00000
   scf:   40    -2329.280425    -2329.280304    -2329.628171  0.000354 -1.461619  0.038454
     spin moment: S , {S} =    2.79772   2.79772   0.00000   0.00000
   scf:   41    -2329.280703    -2329.280507    -2329.628272  0.000814 -1.461846  0.038425
     spin moment: S , {S} =    2.79825   2.79825   0.00000  -0.00000
   scf:   42    -2329.280523    -2329.280513    -2329.628290  0.000151 -1.461669  0.038413
     spin moment: S , {S} =    2.79871   2.79871   0.00000  -0.00000
   scf:   43    -2329.280550    -2329.280530    -2329.628326  0.000405 -1.461829  0.038405
     spin moment: S , {S} =    2.80052   2.80052   0.00000  -0.00000
   scf:   44    -2329.279464    -2329.279992    -2329.627895  0.001652 -1.461698  0.038554
     spin moment: S , {S} =    2.79108   2.79108   0.00000  -0.00000
   scf:   45    -2329.279853    -2329.279923    -2329.627844  0.000191 -1.461694  0.038571
     spin moment: S , {S} =    2.79006   2.79006   0.00000  -0.00000
   scf:   46    -2329.280695    -2329.280306    -2329.628115  0.001026 -1.461740  0.038481
     spin moment: S , {S} =    2.79509   2.79509   0.00000  -0.00000
   scf:   47    -2329.280402    -2329.280356    -2329.628130  0.000304 -1.461780  0.038477
     spin moment: S , {S} =    2.79473   2.79473   0.00000  -0.00000
   scf:   48    -2329.281115    -2329.280726    -2329.628451  0.001187 -1.461796  0.038362
     spin moment: S , {S} =    2.80245   2.80245   0.00000  -0.00000
   scf:   49    -2329.280553    -2329.280640    -2329.628375  0.000278 -1.461815  0.038391
     spin moment: S , {S} =    2.80055   2.80055   0.00000  -0.00000
   scf:   50    -2329.273416    -2329.276656    -2329.625485  0.011839 -1.459398  0.039382
     spin moment: S , {S} =    2.74624   2.74624   0.00000   0.00003
   scf:   51    -2329.276831    -2329.276744    -2329.625534  0.000236 -1.459561  0.039370
     spin moment: S , {S} =    2.74689   2.74689   0.00000   0.00001
   scf:   52    -2329.276081    -2329.276403    -2329.625346  0.001414 -1.459109  0.039434
     spin moment: S , {S} =    2.74541   2.74541   0.00000   0.00000
   scf:   53    -2329.276448    -2329.276426    -2329.625360  0.000072 -1.459124  0.039427
     spin moment: S , {S} =    2.74560   2.74560   0.00000   0.00000
   scf:   54    -2329.277072    -2329.276753    -2329.625562  0.001192 -1.458836  0.039277
     spin moment: S , {S} =    2.74956   2.74956   0.00000   0.00004
   scf:   55    -2329.276923    -2329.276838    -2329.625624  0.000253 -1.458822  0.039246
     spin moment: S , {S} =    2.75083   2.75083   0.00000   0.00002
   scf:   56    -2329.277136    -2329.276987    -2329.625742  0.000470 -1.458843  0.039199
     spin moment: S , {S} =    2.75331   2.75331   0.00000  -0.00001
   scf:   57    -2329.277397    -2329.277190    -2329.625903  0.000684 -1.458941  0.039141
     spin moment: S , {S} =    2.75664   2.75664   0.00000  -0.00000
   scf:   58    -2329.276656    -2329.276922    -2329.625691  0.000859 -1.458838  0.039222
     spin moment: S , {S} =    2.75221   2.75221   0.00000  -0.00001
   scf:   59    -2329.276899    -2329.276911    -2329.625675  0.000116 -1.458817  0.039223
     spin moment: S , {S} =    2.75180   2.75180   0.00000  -0.00001
   scf:   60    -2329.276878    -2329.276894    -2329.625668  0.000087 -1.458841  0.039231
     spin moment: S , {S} =    2.75172   2.75172   0.00000  -0.00000
   scf:   61    -2329.276900    -2329.276897    -2329.625670  0.000046 -1.458818  0.039233
     spin moment: S , {S} =    2.75170   2.75170   0.00000  -0.00002
   scf:   62    -2329.277115    -2329.277006    -2329.625755  0.000411 -1.458879  0.039207
     spin moment: S , {S} =    2.75333   2.75333   0.00000  -0.00002
   scf:   63    -2329.276768    -2329.276887    -2329.625662  0.000381 -1.458825  0.039242
     spin moment: S , {S} =    2.75145   2.75145   0.00000  -0.00003
   scf:   64    -2329.276599    -2329.276742    -2329.625544  0.000494 -1.458754  0.039287
     spin moment: S , {S} =    2.74894   2.74894   0.00000  -0.00003
   scf:   65    -2329.276698    -2329.276720    -2329.625528  0.000076 -1.458778  0.039294
     spin moment: S , {S} =    2.74861   2.74861   0.00000  -0.00002
   scf:   66    -2329.276646    -2329.276684    -2329.625495  0.000173 -1.458654  0.039302
     spin moment: S , {S} =    2.74786   2.74786   0.00000  -0.00003
   scf:   67    -2329.276716    -2329.276700    -2329.625503  0.000137 -1.458487  0.039291
     spin moment: S , {S} =    2.74800   2.74800   0.00000   0.00000
   scf:   68    -2329.276437    -2329.276569    -2329.625390  0.000470 -1.458467  0.039335
     spin moment: S , {S} =    2.74551   2.74551   0.00000  -0.00001
   scf:   69    -2329.277224    -2329.276892    -2329.625658  0.001120 -1.458610  0.039235
     spin moment: S , {S} =    2.75123   2.75123   0.00000  -0.00001
   scf:   70    -2329.275742    -2329.276307    -2329.625202  0.001885 -1.458355  0.039411
     spin moment: S , {S} =    2.74202   2.74202   0.00000   0.00002
   scf:   71    -2329.276369    -2329.276337    -2329.625231  0.000117 -1.458359  0.039401
     spin moment: S , {S} =    2.74273   2.74273   0.00000   0.00002
   scf:   72    -2329.276312    -2329.276326    -2329.625204  0.000116 -1.458429  0.039410
     spin moment: S , {S} =    2.74175   2.74175   0.00000   0.00001
   scf:   73    -2329.275937    -2329.276130    -2329.625067  0.000644 -1.458145  0.039459
     spin moment: S , {S} =    2.73944   2.73944   0.00000   0.00001
   scf:   74    -2329.275937    -2329.276033    -2329.624989  0.000357 -1.458045  0.039487
     spin moment: S , {S} =    2.73786   2.73786   0.00000   0.00001
   scf:   75    -2329.276094    -2329.276064    -2329.625014  0.000104 -1.458054  0.039477
     spin moment: S , {S} =    2.73838   2.73838   0.00000   0.00001
   scf:   76    -2329.275609    -2329.275835    -2329.624838  0.000764 -1.457942  0.039548
     spin moment: S , {S} =    2.73496   2.73496   0.00000   0.00002
   scf:   77    -2329.275882    -2329.275859    -2329.624846  0.000089 -1.458044  0.039546
     spin moment: S , {S} =    2.73489   2.73489   0.00000   0.00002
   scf:   78    -2329.275565    -2329.275711    -2329.624743  0.000478 -1.457847  0.039585
     spin moment: S , {S} =    2.73316   2.73316   0.00000   0.00002
   scf:   79    -2329.275795    -2329.275752    -2329.624784  0.000162 -1.457847  0.039570
     spin moment: S , {S} =    2.73415   2.73415   0.00000   0.00002
   scf:   80    -2329.275902    -2329.275827    -2329.624837  0.000246 -1.457873  0.039547
     spin moment: S , {S} =    2.73510   2.73510   0.00000   0.00001
   scf:   81    -2329.275004    -2329.275410    -2329.624524  0.001370 -1.457667  0.039677
     spin moment: S , {S} =    2.72919   2.72919   0.00000   0.00002
   scf:   82    -2329.275451    -2329.275431    -2329.624536  0.000054 -1.457746  0.039674
     spin moment: S , {S} =    2.72934   2.72934   0.00000   0.00002
   scf:   83    -2329.275291    -2329.275360    -2329.624491  0.000236 -1.457630  0.039691
     spin moment: S , {S} =    2.72871   2.72871   0.00000   0.00002
   scf:   84    -2329.275266    -2329.275313    -2329.624447  0.000182 -1.457622  0.039708
     spin moment: S , {S} =    2.72764   2.72764   0.00000   0.00002
   scf:   85    -2329.275879    -2329.275593    -2329.624670  0.000960 -1.457761  0.039618
     spin moment: S , {S} =    2.73221   2.73221   0.00000   0.00001
   scf:   86    -2329.275122    -2329.275355    -2329.624492  0.000809 -1.457620  0.039691
     spin moment: S , {S} =    2.72890   2.72890   0.00000   0.00001
   scf:   87    -2329.275414    -2329.275384    -2329.624514  0.000124 -1.457654  0.039683
     spin moment: S , {S} =    2.72926   2.72926   0.00000   0.00001
   scf:   88    -2329.275370    -2329.275379    -2329.624487  0.000175 -1.457646  0.039687
     spin moment: S , {S} =    2.72835   2.72835   0.00000   0.00001
   scf:   89    -2329.275806    -2329.275590    -2329.624669  0.000782 -1.457755  0.039617
     spin moment: S , {S} =    2.73237   2.73237   0.00000   0.00000
   scf:   90    -2329.275465    -2329.275527    -2329.624617  0.000220 -1.457753  0.039639
     spin moment: S , {S} =    2.73124   2.73124   0.00000   0.00000
   scf:   91    -2329.275561    -2329.275544    -2329.624631  0.000066 -1.457737  0.039632
     spin moment: S , {S} =    2.73153   2.73153   0.00000   0.00000
   scf:   92    -2329.276431    -2329.275985    -2329.624962  0.000922 -1.458049  0.039481
     spin moment: S , {S} =    2.73877   2.73877   0.00000  -0.00002
   scf:   93    -2329.276450    -2329.276220    -2329.625109  0.000448 -1.458304  0.039399
     spin moment: S , {S} =    2.74182   2.74182   0.00000  -0.00001
   scf:   94    -2329.275714    -2329.275968    -2329.624782  0.002218 -1.458725  0.039479
     spin moment: S , {S} =    2.73431   2.73431   0.00000   0.00002
   scf:   95    -2329.275931    -2329.275950    -2329.624757  0.000105 -1.458800  0.039489
     spin moment: S , {S} =    2.73365   2.73365   0.00000   0.00001
   scf:   96    -2329.275879    -2329.275914    -2329.624741  0.000188 -1.458551  0.039484
     spin moment: S , {S} =    2.73371   2.73371   0.00000   0.00004
   scf:   97    -2329.276388    -2329.276149    -2329.624929  0.000688 -1.458732  0.039407
     spin moment: S , {S} =    2.73776   2.73776   0.00000   0.00004
   scf:   98    -2329.278332    -2329.277212    -2329.625750  0.002699 -1.459514  0.039057
     spin moment: S , {S} =    2.75565   2.75565   0.00000   0.00005
   scf:   99    -2329.278167    -2329.277685    -2329.626100  0.001055 -1.459870  0.038902
     spin moment: S , {S} =    2.76327   2.76327   0.00000   0.00001
   scf:  100    -2329.277428    -2329.277556    -2329.626002  0.000557 -1.459684  0.038929
     spin moment: S , {S} =    2.76162   2.76162   0.00000   0.00003
   scf:  101    -2329.277808    -2329.277681    -2329.626106  0.000569 -1.459823  0.038901
     spin moment: S , {S} =    2.76354   2.76354   0.00000   0.00002
   scf:  102    -2329.279524    -2329.278569    -2329.626885  0.003057 -1.460129  0.038619
     spin moment: S , {S} =    2.78144   2.78144   0.00000   0.00002
   scf:  103    -2329.279490    -2329.279022    -2329.627251  0.001186 -1.460320  0.038467
     spin moment: S , {S} =    2.78996   2.78996   0.00000   0.00001
   scf:  104    -2329.279135    -2329.279079    -2329.627290  0.000160 -1.460371  0.038449
     spin moment: S , {S} =    2.79074   2.79074   0.00000   0.00000
   scf:  105    -2329.279161    -2329.279120    -2329.627320  0.000168 -1.460428  0.038441
     spin moment: S , {S} =    2.79120   2.79120   0.00000   0.00000
   scf:  106    -2329.278996    -2329.279058    -2329.627270  0.000256 -1.460369  0.038455
     spin moment: S , {S} =    2.79026   2.79026   0.00000   0.00000
   scf:  107    -2329.278879    -2329.278969    -2329.627196  0.000291 -1.460327  0.038482
     spin moment: S , {S} =    2.78858   2.78858   0.00000   0.00000
   scf:  108    -2329.278989    -2329.278979    -2329.627204  0.000025 -1.460333  0.038478
     spin moment: S , {S} =    2.78876   2.78876   0.00000   0.00000
   scf:  109    -2329.278465    -2329.278719    -2329.627008  0.000611 -1.460127  0.038560
     spin moment: S , {S} =    2.78444   2.78444   0.00000   0.00002
   scf:  110    -2329.277830    -2329.278267    -2329.626663  0.001212 -1.459726  0.038696
     spin moment: S , {S} =    2.77705   2.77705   0.00000   0.00001
   scf:  111    -2329.278247    -2329.278257    -2329.626654  0.000045 -1.459729  0.038703
     spin moment: S , {S} =    2.77672   2.77672   0.00000   0.00001
   scf:  112    -2329.278285    -2329.278271    -2329.626668  0.000225 -1.459701  0.038683
     spin moment: S , {S} =    2.77756   2.77756   0.00000   0.00002
   scf:  113    -2329.277880    -2329.278075    -2329.626534  0.000741 -1.459578  0.038731
     spin moment: S , {S} =    2.77552   2.77552   0.00000  -0.00000
   scf:  114    -2329.279578    -2329.278814    -2329.627125  0.001824 -1.460337  0.038494
     spin moment: S , {S} =    2.78921   2.78921   0.00000  -0.00000
   scf:  115    -2329.278549    -2329.278681    -2329.627022  0.000329 -1.460210  0.038534
     spin moment: S , {S} =    2.78688   2.78688   0.00000  -0.00000
   scf:  116    -2329.277229    -2329.277942    -2329.626517  0.002070 -1.459758  0.038733
     spin moment: S , {S} =    2.77760   2.77760   0.00000  -0.00002
   scf:  117    -2329.277928    -2329.277935    -2329.626515  0.000066 -1.459778  0.038738
     spin moment: S , {S} =    2.77748   2.77748   0.00000  -0.00001
   scf:  118    -2329.277683    -2329.277809    -2329.626417  0.000451 -1.459652  0.038773
     spin moment: S , {S} =    2.77557   2.77557   0.00000  -0.00001
   scf:  119    -2329.277769    -2329.277789    -2329.626407  0.000123 -1.459652  0.038776
     spin moment: S , {S} =    2.77558   2.77558   0.00000  -0.00001
   scf:  120    -2329.278059    -2329.277924    -2329.626499  0.000380 -1.459728  0.038738
     spin moment: S , {S} =    2.77728   2.77728   0.00000  -0.00001
   scf:  121    -2329.277403    -2329.277661    -2329.626310  0.000634 -1.459557  0.038819
     spin moment: S , {S} =    2.77337   2.77337   0.00000  -0.00001
   scf:  122    -2329.278080    -2329.277870    -2329.626471  0.000546 -1.459739  0.038752
     spin moment: S , {S} =    2.77691   2.77691   0.00000  -0.00001
   scf:  123    -2329.277411    -2329.277639    -2329.626292  0.000884 -1.459513  0.038815
     spin moment: S , {S} =    2.77350   2.77350   0.00000  -0.00001
   scf:  124    -2329.277755    -2329.277697    -2329.626342  0.000191 -1.459600  0.038798
     spin moment: S , {S} =    2.77464   2.77464   0.00000  -0.00001
   scf:  125    -2329.277721    -2329.277709    -2329.626340  0.000109 -1.459545  0.038795
     spin moment: S , {S} =    2.77436   2.77436   0.00000  -0.00001
   scf:  126    -2329.277323    -2329.277515    -2329.626205  0.000525 -1.459445  0.038854
     spin moment: S , {S} =    2.77174   2.77174   0.00000  -0.00001
   scf:  127    -2329.277593    -2329.277554    -2329.626235  0.000074 -1.459476  0.038840
     spin moment: S , {S} =    2.77246   2.77246   0.00000  -0.00001
   scf:  128    -2329.277438    -2329.277496    -2329.626190  0.000203 -1.459419  0.038857
     spin moment: S , {S} =    2.77154   2.77154   0.00000  -0.00001
   scf:  129    -2329.277702    -2329.277599    -2329.626274  0.000339 -1.459551  0.038826
     spin moment: S , {S} =    2.77339   2.77339   0.00000  -0.00001
   scf:  130    -2329.277606    -2329.277602    -2329.626267  0.000081 -1.459496  0.038826
     spin moment: S , {S} =    2.77303   2.77303   0.00000  -0.00001
   scf:  131    -2329.277172    -2329.277386    -2329.626118  0.000612 -1.459390  0.038890
     spin moment: S , {S} =    2.77021   2.77021   0.00000  -0.00001
   scf:  132    -2329.277184    -2329.277284    -2329.626037  0.000332 -1.459290  0.038921
     spin moment: S , {S} =    2.76850   2.76850   0.00000  -0.00001
   scf:  133    -2329.277287    -2329.277286    -2329.626038  0.000071 -1.459296  0.038923
     spin moment: S , {S} =    2.76839   2.76839   0.00000  -0.00001
   scf:  134    -2329.277539    -2329.277413    -2329.626140  0.000216 -1.459432  0.038877
     spin moment: S , {S} =    2.77099   2.77099   0.00000  -0.00001
   scf:  135    -2329.277394    -2329.277403    -2329.626128  0.000034 -1.459388  0.038881
     spin moment: S , {S} =    2.77058   2.77058   0.00000  -0.00001
   scf:  136    -2329.276634    -2329.277014    -2329.625842  0.001133 -1.459138  0.038999
     spin moment: S , {S} =    2.76490   2.76490   0.00000  -0.00001
   scf:  137    -2329.276873    -2329.276943    -2329.625782  0.000257 -1.459065  0.039023
     spin moment: S , {S} =    2.76360   2.76360   0.00000  -0.00000
   scf:  138    -2329.276983    -2329.276963    -2329.625785  0.000093 -1.459053  0.039020
     spin moment: S , {S} =    2.76344   2.76344   0.00000  -0.00000
   scf:  139    -2329.277477    -2329.277217    -2329.625983  0.001138 -1.459478  0.038957
     spin moment: S , {S} =    2.76699   2.76699   0.00000  -0.00000
   scf:  140    -2329.276790    -2329.277001    -2329.625826  0.000564 -1.459422  0.039027
     spin moment: S , {S} =    2.76374   2.76374   0.00000   0.00000
   scf:  141    -2329.276260    -2329.276626    -2329.625544  0.001157 -1.459184  0.039144
     spin moment: S , {S} =    2.75812   2.75812   0.00000   0.00000
   scf:  142    -2329.272641    -2329.274451    -2329.623740  0.009184 -1.457878  0.039873
     spin moment: S , {S} =    2.72128   2.72128   0.00000  -0.00004
   scf:  143    -2329.273806    -2329.274121    -2329.623392  0.002493 -1.457621  0.040003
     spin moment: S , {S} =    2.71405   2.71405   0.00000  -0.00003
   scf:  144    -2329.273400    -2329.273741    -2329.622879  0.004516 -1.457243  0.040177
     spin moment: S , {S} =    2.70337   2.70337   0.00000   0.00000
   scf:  145    -2329.273213    -2329.273473    -2329.622663  0.001035 -1.457105  0.040293
     spin moment: S , {S} =    2.69876   2.69876   0.00000  -0.00001
   scf:  146    -2329.272470    -2329.272957    -2329.622240  0.002093 -1.456863  0.040525
     spin moment: S , {S} =    2.68976   2.68976   0.00000  -0.00001
   scf:  147    -2329.272950    -2329.272953    -2329.622235  0.000048 -1.456855  0.040527
     spin moment: S , {S} =    2.68963   2.68963   0.00000  -0.00001
   scf:  148    -2329.273043    -2329.272998    -2329.622287  0.000395 -1.456900  0.040504
     spin moment: S , {S} =    2.69076   2.69076   0.00000  -0.00001
   scf:  149    -2329.273017    -2329.273008    -2329.622287  0.000064 -1.456893  0.040502
     spin moment: S , {S} =    2.69074   2.69074   0.00000  -0.00001
   scf:  150    -2329.271281    -2329.272095    -2329.621512  0.004464 -1.456536  0.040925
     spin moment: S , {S} =    2.67439   2.67439   0.00000  -0.00002
   scf:  151    -2329.271951    -2329.272022    -2329.621447  0.000448 -1.456520  0.040960
     spin moment: S , {S} =    2.67304   2.67304   0.00000  -0.00001
   scf:  152    -2329.272270    -2329.272144    -2329.621605  0.001181 -1.456706  0.040879
     spin moment: S , {S} =    2.67680   2.67680   0.00000  -0.00001
   scf:  153    -2329.271872    -2329.272006    -2329.621445  0.001124 -1.456552  0.040965
     spin moment: S , {S} =    2.67308   2.67308   0.00000  -0.00001
   scf:  154    -2329.274755    -2329.273321    -2329.622535  0.002395 -1.457591  0.039949
     spin moment: S , {S} =    2.70338   2.70338   0.00000   0.00017
   scf:  155    -2329.276393    -2329.274783    -2329.623694  0.002638 -1.458631  0.038813
     spin moment: S , {S} =    2.73662   2.73662   0.00000   0.00018
   scf:  156    -2329.276833    -2329.275774    -2329.624475  0.001819 -1.459348  0.038031
     spin moment: S , {S} =    2.75972   2.75972   0.00000   0.00006
   scf:  157    -2329.278519    -2329.277049    -2329.625752  0.002802 -1.461118  0.037025
     spin moment: S , {S} =    2.79777   2.79777   0.00000   0.00001
   scf:  158    -2329.276993    -2329.277020    -2329.625786  0.000653 -1.461281  0.037068
     spin moment: S , {S} =    2.79855   2.79855   0.00000  -0.00000
   scf:  159    -2329.276883    -2329.276951    -2329.625708  0.000346 -1.461178  0.037153
     spin moment: S , {S} =    2.79598   2.79598   0.00000  -0.00002
   scf:  160    -2329.278346    -2329.277630    -2329.626291  0.001194 -1.461941  0.036768
     spin moment: S , {S} =    2.81279   2.81279   0.00000  -0.00007
   scf:  161    -2329.280976    -2329.279182    -2329.627675  0.003008 -1.463833  0.035885
     spin moment: S , {S} =    2.85357   2.85357   0.00000  -0.00007
   scf:  162    -2329.280269    -2329.279710    -2329.628159  0.001769 -1.464554  0.035708
     spin moment: S , {S} =    2.86709   2.86709   0.00000  -0.00002
   scf:  163    -2329.280147    -2329.279925    -2329.628361  0.000622 -1.464830  0.035610
     spin moment: S , {S} =    2.87296   2.87296   0.00000  -0.00001
   scf:  164    -2329.279895    -2329.279910    -2329.628341  0.000128 -1.464804  0.035610
     spin moment: S , {S} =    2.87245   2.87245   0.00000  -0.00001
   scf:  165    -2329.279773    -2329.279842    -2329.628279  0.000137 -1.464720  0.035651
     spin moment: S , {S} =    2.87054   2.87054   0.00000  -0.00001
   scf:  166    -2329.279637    -2329.279739    -2329.628178  0.000265 -1.464583  0.035713
     spin moment: S , {S} =    2.86749   2.86749   0.00000  -0.00000
   scf:  167    -2329.279660    -2329.279699    -2329.628143  0.000091 -1.464530  0.035750
     spin moment: S , {S} =    2.86633   2.86633   0.00000   0.00000
   scf:  168    -2329.279655    -2329.279677    -2329.628130  0.000080 -1.464507  0.035774
     spin moment: S , {S} =    2.86583   2.86583   0.00000   0.00000
   scf:  169    -2329.279729    -2329.279703    -2329.628149  0.000051 -1.464535  0.035753
     spin moment: S , {S} =    2.86646   2.86646   0.00000   0.00000
   scf:  170    -2329.279631    -2329.279667    -2329.628116  0.000081 -1.464494  0.035772
     spin moment: S , {S} =    2.86547   2.86547   0.00000   0.00000
   scf:  171    -2329.279389    -2329.279527    -2329.627977  0.000455 -1.464337  0.035837
     spin moment: S , {S} =    2.86143   2.86143   0.00000   0.00001
   scf:  172    -2329.279395    -2329.279461    -2329.627914  0.000188 -1.464271  0.035869
     spin moment: S , {S} =    2.85958   2.85958   0.00000   0.00000
   scf:  173    -2329.279260    -2329.279360    -2329.627841  0.000180 -1.464190  0.035939
     spin moment: S , {S} =    2.85723   2.85723   0.00000  -0.00000
   scf:  174    -2329.279414    -2329.279387    -2329.627863  0.000051 -1.464218  0.035921
     spin moment: S , {S} =    2.85792   2.85792   0.00000   0.00000
   scf:  175    -2329.279452    -2329.279419    -2329.627893  0.000068 -1.464256  0.035903
     spin moment: S , {S} =    2.85881   2.85881   0.00000   0.00000
   scf:  176    -2329.279561    -2329.279490    -2329.627965  0.000251 -1.464336  0.035871
     spin moment: S , {S} =    2.86089   2.86089   0.00000  -0.00000
   scf:  177    -2329.279457    -2329.279474    -2329.627949  0.000052 -1.464327  0.035878
     spin moment: S , {S} =    2.86042   2.86042   0.00000   0.00000
   scf:  178    -2329.279518    -2329.279496    -2329.627960  0.000069 -1.464330  0.035860
     spin moment: S , {S} =    2.86085   2.86085   0.00000  -0.00000
   scf:  179    -2329.279516    -2329.279506    -2329.627969  0.000019 -1.464338  0.035854
     spin moment: S , {S} =    2.86111   2.86111   0.00000  -0.00000
   scf:  180    -2329.279767    -2329.279635    -2329.628089  0.000271 -1.464470  0.035783
     spin moment: S , {S} =    2.86478   2.86478   0.00000   0.00001
   scf:  181    -2329.279793    -2329.279713    -2329.628169  0.000263 -1.464562  0.035746
     spin moment: S , {S} =    2.86711   2.86711   0.00000   0.00000
   scf:  182    -2329.279633    -2329.279673    -2329.628131  0.000101 -1.464521  0.035767
     spin moment: S , {S} =    2.86600   2.86600   0.00000   0.00001
   scf:  183    -2329.279621    -2329.279647    -2329.628113  0.000045 -1.464503  0.035785
     spin moment: S , {S} =    2.86542   2.86542   0.00000   0.00001
   scf:  184    -2329.279500    -2329.279573    -2329.628051  0.000140 -1.464436  0.035829
     spin moment: S , {S} =    2.86349   2.86349   0.00000   0.00000
   scf:  185    -2329.279750    -2329.279661    -2329.628133  0.000176 -1.464529  0.035780
     spin moment: S , {S} =    2.86597   2.86597   0.00000   0.00001
   scf:  186    -2329.279677    -2329.279669    -2329.628141  0.000040 -1.464538  0.035778
     spin moment: S , {S} =    2.86622   2.86622   0.00000   0.00001
   scf:  187    -2329.279694    -2329.279682    -2329.628144  0.000203 -1.464592  0.035745
     spin moment: S , {S} =    2.86653   2.86653   0.00000   0.00001
   scf:  188    -2329.279935    -2329.279807    -2329.628263  0.000371 -1.464884  0.035623
     spin moment: S , {S} =    2.87061   2.87061   0.00000   0.00001
   scf:  189    -2329.279682    -2329.279744    -2329.628204  0.000216 -1.464849  0.035643
     spin moment: S , {S} =    2.86892   2.86892   0.00000   0.00001
   scf:  190    -2329.279698    -2329.279721    -2329.628180  0.000087 -1.464827  0.035652
     spin moment: S , {S} =    2.86823   2.86823   0.00000   0.00001
   scf:  191    -2329.279820    -2329.279770    -2329.628228  0.000124 -1.464884  0.035624
     spin moment: S , {S} =    2.86966   2.86966   0.00000   0.00001
   scf:  192    -2329.279474    -2329.279621    -2329.628088  0.000304 -1.464698  0.035718
     spin moment: S , {S} =    2.86537   2.86537   0.00000   0.00000
   scf:  193    -2329.279827    -2329.279723    -2329.628179  0.000226 -1.464862  0.035635
     spin moment: S , {S} =    2.86835   2.86835   0.00000   0.00001
   scf:  194    -2329.279686    -2329.279705    -2329.628162  0.000055 -1.464852  0.035642
     spin moment: S , {S} =    2.86787   2.86787   0.00000   0.00000
   scf:  195    -2329.279789    -2329.279747    -2329.628203  0.000131 -1.464894  0.035624
     spin moment: S , {S} =    2.86910   2.86910   0.00000   0.00000
   scf:  196    -2329.279921    -2329.279833    -2329.628288  0.000243 -1.464995  0.035577
     spin moment: S , {S} =    2.87163   2.87163   0.00000   0.00000
   scf:  197    -2329.279445    -2329.279637    -2329.628101  0.000444 -1.464750  0.035697
     spin moment: S , {S} =    2.86595   2.86595   0.00000   0.00000
   scf:  198    -2329.279679    -2329.279658    -2329.628121  0.000056 -1.464796  0.035677
     spin moment: S , {S} =    2.86663   2.86663   0.00000   0.00000
   scf:  199    -2329.279544    -2329.279601    -2329.628069  0.000121 -1.464719  0.035715
     spin moment: S , {S} =    2.86497   2.86497   0.00000   0.00000
   scf:  200    -2329.279841    -2329.279720    -2329.628182  0.000299 -1.464836  0.035659
     spin moment: S , {S} =    2.86840   2.86840   0.00000   0.00000
   scf:  201    -2329.279914    -2329.279816    -2329.628272  0.000192 -1.464956  0.035596
     spin moment: S , {S} =    2.87113   2.87113   0.00000   0.00000
   scf:  202    -2329.279686    -2329.279751    -2329.628217  0.000116 -1.464906  0.035633
     spin moment: S , {S} =    2.86949   2.86949   0.00000   0.00000
   scf:  203    -2329.279603    -2329.279677    -2329.628139  0.000186 -1.464743  0.035696
     spin moment: S , {S} =    2.86694   2.86694   0.00000   0.00000
   scf:  204    -2329.279844    -2329.279760    -2329.628219  0.000226 -1.464831  0.035654
     spin moment: S , {S} =    2.86935   2.86935   0.00000   0.00000
   scf:  205    -2329.279643    -2329.279701    -2329.628163  0.000142 -1.464774  0.035681
     spin moment: S , {S} =    2.86766   2.86766   0.00000   0.00000
   scf:  206    -2329.279371    -2329.279535    -2329.628005  0.000397 -1.464567  0.035785
     spin moment: S , {S} =    2.86289   2.86289   0.00000   0.00000
   scf:  207    -2329.279859    -2329.279695    -2329.628153  0.000334 -1.464787  0.035674
     spin moment: S , {S} =    2.86752   2.86752   0.00000   0.00000
   scf:  208    -2329.279763    -2329.279728    -2329.628187  0.000144 -1.464880  0.035634
     spin moment: S , {S} =    2.86874   2.86874   0.00000   0.00000
   scf:  209    -2329.279897    -2329.279812    -2329.628269  0.000252 -1.464965  0.035595
     spin moment: S , {S} =    2.87117   2.87117   0.00000   0.00000
   scf:  210    -2329.279653    -2329.279732    -2329.628191  0.000213 -1.464885  0.035631
     spin moment: S , {S} =    2.86884   2.86884   0.00000   0.00000
   scf:  211    -2329.279360    -2329.279545    -2329.628011  0.000471 -1.464649  0.035747
     spin moment: S , {S} =    2.86341   2.86341   0.00000   0.00000
   scf:  212    -2329.279694    -2329.279619    -2329.628084  0.000170 -1.464780  0.035688
     spin moment: S , {S} =    2.86575   2.86575   0.00000   0.00000
   scf:  213    -2329.279439    -2329.279528    -2329.628002  0.000209 -1.464622  0.035767
     spin moment: S , {S} =    2.86301   2.86301   0.00000   0.00000
   scf:  214    -2329.279959    -2329.279741    -2329.628181  0.000443 -1.464892  0.035608
     spin moment: S , {S} =    2.86887   2.86887   0.00000   0.00000
   scf:  215    -2329.280540    -2329.280131    -2329.628528  0.000778 -1.465307  0.035366
     spin moment: S , {S} =    2.87972   2.87972   0.00000   0.00000
   scf:  216    -2329.280127    -2329.280129    -2329.628525  0.000031 -1.465301  0.035368
     spin moment: S , {S} =    2.87967   2.87967   0.00000   0.00000
   scf:  217    -2329.280079    -2329.280105    -2329.628500  0.000401 -1.465324  0.035360
     spin moment: S , {S} =    2.87929   2.87929   0.00000   0.00000
   scf:  218    -2329.279998    -2329.280051    -2329.628465  0.000383 -1.465212  0.035430
     spin moment: S , {S} =    2.87772   2.87772   0.00000   0.00000
   scf:  219    -2329.280561    -2329.280303    -2329.628664  0.000519 -1.465487  0.035241
     spin moment: S , {S} =    2.88445   2.88445   0.00000   0.00000
   scf:  220    -2329.280351    -2329.280326    -2329.628694  0.000126 -1.465546  0.035222
     spin moment: S , {S} =    2.88535   2.88535   0.00000   0.00000
   scf:  221    -2329.279977    -2329.280151    -2329.628523  0.000432 -1.465281  0.035348
     spin moment: S , {S} =    2.88011   2.88011   0.00000   0.00000
   scf:  222    -2329.280295    -2329.280222    -2329.628590  0.000400 -1.465315  0.035324
     spin moment: S , {S} =    2.88184   2.88184   0.00000   0.00000
   scf:  223    -2329.280568    -2329.280393    -2329.628737  0.000384 -1.465562  0.035183
     spin moment: S , {S} =    2.88685   2.88685   0.00000   0.00000
   scf:  224    -2329.280158    -2329.280274    -2329.628657  0.000272 -1.465446  0.035285
     spin moment: S , {S} =    2.88388   2.88388   0.00000   0.00000
   scf:  225    -2329.279961    -2329.280117    -2329.628465  0.000820 -1.465119  0.035388
     spin moment: S , {S} =    2.87829   2.87829   0.00000   0.00000
   scf:  226    -2329.280515    -2329.280313    -2329.628656  0.000514 -1.465377  0.035262
     spin moment: S , {S} =    2.88407   2.88407   0.00000   0.00000
   scf:  227    -2329.280265    -2329.280289    -2329.628635  0.000306 -1.465394  0.035262
     spin moment: S , {S} =    2.88373   2.88373   0.00000   0.00000
   scf:  228    -2329.279728    -2329.280004    -2329.628383  0.000639 -1.464985  0.035488
     spin moment: S , {S} =    2.87525   2.87525   0.00000   0.00000
   scf:  229    -2329.280300    -2329.280151    -2329.628480  0.000341 -1.465098  0.035370
     spin moment: S , {S} =    2.87882   2.87882   0.00000   0.00000
   scf:  230    -2329.280368    -2329.280257    -2329.628612  0.000664 -1.465291  0.035317
     spin moment: S , {S} =    2.88252   2.88252   0.00000   0.00000
   scf:  231    -2329.279460    -2329.279850    -2329.628202  0.001325 -1.464767  0.035555
     spin moment: S , {S} =    2.87036   2.87036   0.00000   0.00000
   scf:  232    -2329.279830    -2329.279840    -2329.628194  0.000339 -1.464694  0.035588
     spin moment: S , {S} =    2.86974   2.86974   0.00000   0.00000
   scf:  233    -2329.280322    -2329.280077    -2329.628406  0.000530 -1.465028  0.035405
     spin moment: S , {S} =    2.87683   2.87683   0.00000   0.00000
   scf:  234    -2329.279758    -2329.279915    -2329.628299  0.000366 -1.464906  0.035532
     spin moment: S , {S} =    2.87289   2.87289   0.00000   0.00000
   scf:  235    -2329.279552    -2329.279733    -2329.628089  0.000874 -1.464595  0.035640
     spin moment: S , {S} =    2.86682   2.86682   0.00000   0.00000
   scf:  236    -2329.280316    -2329.280017    -2329.628381  0.001037 -1.464955  0.035483
     spin moment: S , {S} =    2.87536   2.87536   0.00000   0.00000
   scf:  237    -2329.280018    -2329.280018    -2329.628378  0.000570 -1.465054  0.035436
     spin moment: S , {S} =    2.87591   2.87591   0.00000   0.00000
   scf:  238    -2329.279533    -2329.279772    -2329.628163  0.000546 -1.464709  0.035633
     spin moment: S , {S} =    2.86866   2.86866   0.00000   0.00000
   scf:  239    -2329.280116    -2329.279943    -2329.628278  0.000384 -1.464839  0.035498
     spin moment: S , {S} =    2.87285   2.87285   0.00000   0.00000
   scf:  240    -2329.280337    -2329.280135    -2329.628502  0.001025 -1.465158  0.035397
     spin moment: S , {S} =    2.87926   2.87926   0.00000   0.00000
   scf:  241    -2329.279287    -2329.279701    -2329.628057  0.001577 -1.464603  0.035638
     spin moment: S , {S} =    2.86620   2.86620   0.00000   0.00000
   scf:  242    -2329.279711    -2329.279705    -2329.628066  0.000547 -1.464519  0.035680
     spin moment: S , {S} =    2.86588   2.86588   0.00000   0.00000
   scf:  243    -2329.280224    -2329.279960    -2329.628299  0.000565 -1.464875  0.035489
     spin moment: S , {S} =    2.87355   2.87355   0.00000   0.00000
   scf:  244    -2329.279580    -2329.279768    -2329.628162  0.000403 -1.464720  0.035634
     spin moment: S , {S} =    2.86869   2.86869   0.00000   0.00000
   scf:  245    -2329.279349    -2329.279557    -2329.627922  0.001007 -1.464372  0.035757
     spin moment: S , {S} =    2.86175   2.86175   0.00000   0.00000
   scf:  246    -2329.280358    -2329.279944    -2329.628322  0.001456 -1.464864  0.035545
     spin moment: S , {S} =    2.87341   2.87341   0.00000   0.00000
   scf:  247    -2329.279922    -2329.279933    -2329.628309  0.000562 -1.464945  0.035507
     spin moment: S , {S} =    2.87365   2.87365   0.00000   0.00000
   scf:  248    -2329.279364    -2329.279644    -2329.628048  0.000643 -1.464542  0.035729
     spin moment: S , {S} =    2.86499   2.86499   0.00000   0.00000
   scf:  249    -2329.280005    -2329.279823    -2329.628181  0.000361 -1.464690  0.035599
     spin moment: S , {S} =    2.86961   2.86961   0.00000   0.00000
   scf:  250    -2329.280325    -2329.280067    -2329.628458  0.001195 -1.465085  0.035465
     spin moment: S , {S} =    2.87758   2.87758   0.00000   0.00000
   scf:  251    -2329.279253    -2329.279651    -2329.628034  0.001485 -1.464555  0.035696
     spin moment: S , {S} =    2.86514   2.86514   0.00000   0.00000
   scf:  252    -2329.279684    -2329.279667    -2329.628051  0.000574 -1.464478  0.035732
     spin moment: S , {S} =    2.86504   2.86504   0.00000   0.00000
   scf:  253    -2329.280208    -2329.279932    -2329.628299  0.000584 -1.464844  0.035542
     spin moment: S , {S} =    2.87307   2.87307   0.00000   0.00000
   scf:  254    -2329.279491    -2329.279709    -2329.628126  0.000453 -1.464648  0.035699
     spin moment: S , {S} =    2.86716   2.86716   0.00000   0.00000
   scf:  255    -2329.279234    -2329.279468    -2329.627856  0.001098 -1.464257  0.035841
     spin moment: S , {S} =    2.85937   2.85937   0.00000   0.00000
   scf:  256    -2329.280320    -2329.279880    -2329.628279  0.001528 -1.464778  0.035617
     spin moment: S , {S} =    2.87167   2.87167   0.00000   0.00000
   scf:  257    -2329.279851    -2329.279865    -2329.628267  0.000546 -1.464857  0.035583
     spin moment: S , {S} =    2.87189   2.87189   0.00000   0.00000
   scf:  258    -2329.279251    -2329.279553    -2329.627977  0.000690 -1.464426  0.035811
     spin moment: S , {S} =    2.86245   2.86245   0.00000   0.00000
   scf:  259    -2329.279945    -2329.279747    -2329.628132  0.000391 -1.464597  0.035682
     spin moment: S , {S} =    2.86764   2.86764   0.00000   0.00000
   scf:  260    -2329.280316    -2329.280023    -2329.628440  0.001263 -1.465040  0.035524
     spin moment: S , {S} =    2.87654   2.87654   0.00000   0.00000
   scf:  261    -2329.279246    -2329.279626    -2329.628038  0.001373 -1.464537  0.035746
     spin moment: S , {S} =    2.86476   2.86476   0.00000   0.00000
   scf:  262    -2329.279667    -2329.279646    -2329.628054  0.000553 -1.464461  0.035775
     spin moment: S , {S} =    2.86465   2.86465   0.00000   0.00000
   scf:  263    -2329.280201    -2329.279918    -2329.628313  0.000593 -1.464831  0.035591
     spin moment: S , {S} =    2.87292   2.87292   0.00000   0.00000
   scf:  264    -2329.279420    -2329.279665    -2329.628105  0.000512 -1.464597  0.035755
     spin moment: S , {S} =    2.86605   2.86605   0.00000   0.00000
   scf:  265    -2329.279136    -2329.279397    -2329.627808  0.001160 -1.464166  0.035917
     spin moment: S , {S} =    2.85744   2.85744   0.00000   0.00000
   scf:  266    -2329.280260    -2329.279814    -2329.628235  0.001522 -1.464694  0.035689
     spin moment: S , {S} =    2.86983   2.86983   0.00000   0.00000
   scf:  267    -2329.279785    -2329.279800    -2329.628227  0.000507 -1.464773  0.035660
     spin moment: S , {S} =    2.87013   2.87013   0.00000   0.00000
   scf:  268    -2329.279143    -2329.279465    -2329.627909  0.000732 -1.464317  0.035891
     spin moment: S , {S} =    2.85996   2.85996   0.00000   0.00000
   scf:  269    -2329.279869    -2329.279665    -2329.628079  0.000401 -1.464501  0.035769
     spin moment: S , {S} =    2.86543   2.86543   0.00000   0.00000
   scf:  270    -2329.280331    -2329.279987    -2329.628430  0.001341 -1.465014  0.035575
     spin moment: S , {S} =    2.87570   2.87570   0.00000   0.00000
   scf:  271    -2329.279300    -2329.279638    -2329.628082  0.001130 -1.464572  0.035776
     spin moment: S , {S} =    2.86541   2.86541   0.00000   0.00000
   scf:  272    -2329.279679    -2329.279658    -2329.628090  0.000499 -1.464490  0.035796
     spin moment: S , {S} =    2.86516   2.86516   0.00000   0.00000
   scf:  273    -2329.280132    -2329.279891    -2329.628316  0.000499 -1.464800  0.035651
     spin moment: S , {S} =    2.87224   2.87224   0.00000   0.00000
   scf:  274    -2329.279264    -2329.279572    -2329.628036  0.000637 -1.464492  0.035833
     spin moment: S , {S} =    2.86337   2.86337   0.00000   0.00000
   scf:  275    -2329.279031    -2329.279298    -2329.627741  0.001025 -1.464058  0.036009
     spin moment: S , {S} =    2.85469   2.85469   0.00000   0.00000
   scf:  276    -2329.280239    -2329.279752    -2329.628200  0.001539 -1.464635  0.035750
     spin moment: S , {S} =    2.86809   2.86809   0.00000   0.00000
   scf:  277    -2329.279738    -2329.279745    -2329.628206  0.000355 -1.464716  0.035733
     spin moment: S , {S} =    2.86864   2.86864   0.00000   0.00000
   scf:  278    -2329.278968    -2329.279347    -2329.627818  0.000846 -1.464193  0.035975
     spin moment: S , {S} =    2.85659   2.85659   0.00000   0.00000
   scf:  279    -2329.279707    -2329.279525    -2329.627981  0.000355 -1.464362  0.035886
     spin moment: S , {S} =    2.86154   2.86154   0.00000   0.00000
   scf:  280    -2329.280585    -2329.280033    -2329.628506  0.001462 -1.465158  0.035535
     spin moment: S , {S} =    2.87747   2.87747   0.00000  -0.00000
   scf:  281    -2329.279655    -2329.279843    -2329.628325  0.000412 -1.464917  0.035658
     spin moment: S , {S} =    2.87194   2.87194   0.00000   0.00000
   scf:  282    -2329.279931    -2329.279888    -2329.628322  0.000320 -1.464838  0.035620
     spin moment: S , {S} =    2.87194   2.87194   0.00000   0.00000
   scf:  283    -2329.279418    -2329.279650    -2329.628084  0.000569 -1.464505  0.035766
     spin moment: S , {S} =    2.86462   2.86462   0.00000   0.00000
   scf:  284    -2329.280564    -2329.280096    -2329.628483  0.000904 -1.464972  0.035513
     spin moment: S , {S} =    2.87727   2.87727   0.00000   0.00000
   scf:  285    -2329.280329    -2329.280209    -2329.628616  0.000570 -1.465186  0.035437
     spin moment: S , {S} =    2.88110   2.88110   0.00000   0.00000
   scf:  286    -2329.279088    -2329.279631    -2329.628058  0.001529 -1.464477  0.035791
     spin moment: S , {S} =    2.86432   2.86432   0.00000   0.00000
   scf:  287    -2329.279726    -2329.279679    -2329.628092  0.000252 -1.464473  0.035772
     spin moment: S , {S} =    2.86518   2.86518   0.00000   0.00000
   scf:  288    -2329.280961    -2329.280292    -2329.628699  0.001330 -1.465339  0.035381
     spin moment: S , {S} =    2.88416   2.88416   0.00000   0.00000
   scf:  289    -2329.279821    -2329.280053    -2329.628491  0.000493 -1.465091  0.035524
     spin moment: S , {S} =    2.87738   2.87738   0.00000   0.00000
   scf:  290    -2329.279810    -2329.279932    -2329.628354  0.000507 -1.464859  0.035615
     spin moment: S , {S} =    2.87331   2.87331   0.00000   0.00000
   scf:  291    -2329.280906    -2329.280403    -2329.628795  0.000962 -1.465451  0.035298
     spin moment: S , {S} =    2.88701   2.88701   0.00000   0.00000
   scf:  292    -2329.280463    -2329.280433    -2329.628834  0.000227 -1.465505  0.035288
     spin moment: S , {S} =    2.88808   2.88808   0.00000   0.00000
   scf:  293    -2329.279199    -2329.279789    -2329.628138  0.002674 -1.464599  0.035615
     spin moment: S , {S} =    2.86772   2.86772   0.00000   0.00000
   scf:  294    -2329.278855    -2329.279308    -2329.627649  0.001719 -1.464035  0.035844
     spin moment: S , {S} =    2.85336   2.85336   0.00000   0.00000
   scf:  295    -2329.279236    -2329.279272    -2329.627610  0.000214 -1.463995  0.035851
     spin moment: S , {S} =    2.85233   2.85233   0.00000   0.00000
   scf:  296    -2329.278241    -2329.278733    -2329.626960  0.003361 -1.463093  0.036110
     spin moment: S , {S} =    2.83421   2.83421   0.00000   0.00000
   scf:  297    -2329.279060    -2329.278891    -2329.627173  0.001168 -1.463412  0.036024
     spin moment: S , {S} =    2.84012   2.84012   0.00000   0.00000
   scf:  298    -2329.278136    -2329.278505    -2329.626784  0.001624 -1.462937  0.036219
     spin moment: S , {S} =    2.82907   2.82907   0.00000   0.00000
   scf:  299    -2329.278923    -2329.278710    -2329.627000  0.000889 -1.463212  0.036108
     spin moment: S , {S} =    2.83525   2.83525   0.00000   0.00000
   scf:  300    -2329.279091    -2329.278897    -2329.627199  0.000608 -1.463465  0.035991
     spin moment: S , {S} =    2.84124   2.84124   0.00000   0.00000
   scf:  301    -2329.279372    -2329.279131    -2329.627435  0.000509 -1.463733  0.035849
     spin moment: S , {S} =    2.84858   2.84858   0.00000   0.00000
   scf:  302    -2329.279466    -2329.279296    -2329.627606  0.000524 -1.463929  0.035763
     spin moment: S , {S} =    2.85374   2.85374   0.00000   0.00000
   scf:  303    -2329.278820    -2329.279055    -2329.627334  0.001471 -1.463576  0.035859
     spin moment: S , {S} =    2.84623   2.84623   0.00000   0.00000
   scf:  304    -2329.278848    -2329.278951    -2329.627225  0.000522 -1.463438  0.035908
     spin moment: S , {S} =    2.84315   2.84315   0.00000   0.00000
   scf:  305    -2329.278643    -2329.278796    -2329.627081  0.000443 -1.463273  0.035997
     spin moment: S , {S} =    2.83890   2.83890   0.00000   0.00000
   scf:  306    -2329.278705    -2329.278750    -2329.627039  0.000091 -1.463233  0.036020
     spin moment: S , {S} =    2.83761   2.83761   0.00000   0.00000
   scf:  307    -2329.278971    -2329.278860    -2329.627150  0.000306 -1.463353  0.035964
     spin moment: S , {S} =    2.84095   2.84095   0.00000   0.00000
   scf:  308    -2329.278753    -2329.278806    -2329.627087  0.000247 -1.463274  0.035992
     spin moment: S , {S} =    2.83908   2.83908   0.00000   0.00000
   scf:  309    -2329.278375    -2329.278588    -2329.626865  0.001118 -1.463009  0.036090
     spin moment: S , {S} =    2.83294   2.83294   0.00000  -0.00000
   scf:  310    -2329.278736    -2329.278661    -2329.626943  0.000446 -1.463105  0.036060
     spin moment: S , {S} =    2.83506   2.83506   0.00000  -0.00000
   scf:  311    -2329.278746    -2329.278704    -2329.626966  0.000312 -1.463119  0.036015
     spin moment: S , {S} =    2.83608   2.83608   0.00000  -0.00000
   scf:  312    -2329.279135    -2329.278915    -2329.627193  0.000701 -1.463391  0.035897
     spin moment: S , {S} =    2.84297   2.84297   0.00000   0.00000
   scf:  313    -2329.278599    -2329.278756    -2329.627009  0.000736 -1.463164  0.035977
     spin moment: S , {S} =    2.83751   2.83751   0.00000  -0.00000
   scf:  314    -2329.278750    -2329.278753    -2329.627006  0.000015 -1.463160  0.035978
     spin moment: S , {S} =    2.83743   2.83743   0.00000  -0.00000
   scf:  315    -2329.278640    -2329.278697    -2329.626948  0.000352 -1.463095  0.035993
     spin moment: S , {S} =    2.83588   2.83588   0.00000   0.00000
   scf:  316    -2329.278460    -2329.278577    -2329.626816  0.001141 -1.462936  0.036012
     spin moment: S , {S} =    2.83268   2.83268   0.00000  -0.00000
   scf:  317    -2329.278671    -2329.278624    -2329.626874  0.000218 -1.463007  0.035989
     spin moment: S , {S} =    2.83441   2.83441   0.00000  -0.00000
   scf:  318    -2329.278658    -2329.278641    -2329.626896  0.000109 -1.463035  0.035982
     spin moment: S , {S} =    2.83505   2.83505   0.00000  -0.00000
   scf:  319    -2329.278638    -2329.278640    -2329.626895  0.000004 -1.463033  0.035983
     spin moment: S , {S} =    2.83501   2.83501   0.00000  -0.00000
   scf:  320    -2329.279019    -2329.278825    -2329.627103  0.001053 -1.463324  0.035894
     spin moment: S , {S} =    2.84092   2.84092   0.00000  -0.00001
   scf:  321    -2329.279155    -2329.278986    -2329.627280  0.000936 -1.463580  0.035817
     spin moment: S , {S} =    2.84589   2.84589   0.00000  -0.00001
   scf:  322    -2329.279235    -2329.279109    -2329.627404  0.000447 -1.463758  0.035746
     spin moment: S , {S} =    2.84952   2.84952   0.00000  -0.00001
   scf:  323    -2329.279272    -2329.279189    -2329.627495  0.000348 -1.463880  0.035704
     spin moment: S , {S} =    2.85227   2.85227   0.00000  -0.00000
   scf:  324    -2329.278879    -2329.279033    -2329.627321  0.000619 -1.463648  0.035788
     spin moment: S , {S} =    2.84704   2.84704   0.00000  -0.00000
   scf:  325    -2329.279079    -2329.279056    -2329.627345  0.000053 -1.463678  0.035773
     spin moment: S , {S} =    2.84780   2.84780   0.00000  -0.00001
   scf:  326    -2329.278883    -2329.278970    -2329.627246  0.000599 -1.463535  0.035811
     spin moment: S , {S} =    2.84512   2.84512   0.00000  -0.00001
   scf:  327    -2329.278896    -2329.278933    -2329.627206  0.000212 -1.463477  0.035829
     spin moment: S , {S} =    2.84399   2.84399   0.00000  -0.00001
   scf:  328    -2329.279165    -2329.279047    -2329.627345  0.000586 -1.463664  0.035771
     spin moment: S , {S} =    2.84813   2.84813   0.00000  -0.00000
   scf:  329    -2329.278957    -2329.279002    -2329.627292  0.000187 -1.463592  0.035795
     spin moment: S , {S} =    2.84653   2.84653   0.00000  -0.00000
   scf:  330    -2329.279172    -2329.279086    -2329.627381  0.000467 -1.463720  0.035725
     spin moment: S , {S} =    2.84980   2.84980   0.00000  -0.00000
   scf:  331    -2329.278750    -2329.278915    -2329.627173  0.001823 -1.463434  0.035770
     spin moment: S , {S} =    2.84467   2.84467   0.00000  -0.00000
   scf:  332    -2329.278854    -2329.278885    -2329.627133  0.000542 -1.463380  0.035768
     spin moment: S , {S} =    2.84387   2.84387   0.00000  -0.00000
   scf:  333    -2329.280851    -2329.279790    -2329.628171  0.003457 -1.464863  0.035247
     spin moment: S , {S} =    2.87589   2.87589   0.00000   0.00000
   scf:  334    -2329.279819    -2329.279805    -2329.628188  0.000039 -1.464889  0.035237
     spin moment: S , {S} =    2.87648   2.87648   0.00000   0.00000
   scf:  335    -2329.279737    -2329.279771    -2329.628168  0.000091 -1.464861  0.035248
     spin moment: S , {S} =    2.87597   2.87597   0.00000   0.00000
   scf:  336    -2329.279772    -2329.279767    -2329.628120  0.002318 -1.464847  0.035122
     spin moment: S , {S} =    2.87682   2.87682   0.00000   0.00001
   scf:  337    -2329.279411    -2329.279585    -2329.627871  0.002142 -1.464510  0.035161
     spin moment: S , {S} =    2.87026   2.87026   0.00000   0.00001
   scf:  338    -2329.280612    -2329.280073    -2329.628440  0.001807 -1.465343  0.034864
     spin moment: S , {S} =    2.88829   2.88829   0.00000   0.00001
   scf:  339    -2329.279423    -2329.279740    -2329.628067  0.000817 -1.464783  0.035087
     spin moment: S , {S} =    2.87611   2.87611   0.00000   0.00000
   scf:  340    -2329.279703    -2329.279722    -2329.628040  0.000252 -1.464754  0.035086
     spin moment: S , {S} =    2.87541   2.87541   0.00000   0.00001
   scf:  341    -2329.279704    -2329.279713    -2329.628033  0.000087 -1.464743  0.035088
     spin moment: S , {S} =    2.87527   2.87527   0.00000   0.00000
   scf:  342    -2329.279769    -2329.279741    -2329.628054  0.000344 -1.464778  0.035082
     spin moment: S , {S} =    2.87562   2.87562   0.00000   0.00001
   scf:  343    -2329.279737    -2329.279739    -2329.628053  0.000449 -1.464781  0.035064
     spin moment: S , {S} =    2.87605   2.87605   0.00000   0.00002
   scf:  344    -2329.279892    -2329.279815    -2329.628129  0.000285 -1.464905  0.034995
     spin moment: S , {S} =    2.87880   2.87880   0.00000   0.00002
   scf:  345    -2329.280609    -2329.280198    -2329.628518  0.000934 -1.465532  0.034693
     spin moment: S , {S} =    2.89215   2.89215   0.00000   0.00001
   scf:  346    -2329.280451    -2329.280322    -2329.628661  0.000322 -1.465743  0.034606
     spin moment: S , {S} =    2.89695   2.89695   0.00000   0.00000
   scf:  347    -2329.280082    -2329.280201    -2329.628501  0.000358 -1.465523  0.034687
     spin moment: S , {S} =    2.89147   2.89147   0.00000   0.00001
   scf:  348    -2329.280187    -2329.280194    -2329.628494  0.000269 -1.465515  0.034680
     spin moment: S , {S} =    2.89151   2.89151   0.00000   0.00002
   scf:  349    -2329.280088    -2329.280141    -2329.628426  0.000752 -1.465426  0.034685
     spin moment: S , {S} =    2.88985   2.88985   0.00000   0.00002
   scf:  350    -2329.280121    -2329.280131    -2329.628422  0.000222 -1.465412  0.034705
     spin moment: S , {S} =    2.88954   2.88954   0.00000   0.00002
   scf:  351    -2329.280060    -2329.280095    -2329.628401  0.000089 -1.465364  0.034739
     spin moment: S , {S} =    2.88879   2.88879   0.00000   0.00001
   scf:  352    -2329.280093    -2329.280095    -2329.628391  0.000092 -1.465357  0.034735
     spin moment: S , {S} =    2.88850   2.88850   0.00000   0.00002
   scf:  353    -2329.279975    -2329.280035    -2329.628322  0.000212 -1.465255  0.034773
     spin moment: S , {S} =    2.88629   2.88629   0.00000   0.00002
   scf:  354    -2329.279832    -2329.279933    -2329.628202  0.000410 -1.465078  0.034836
     spin moment: S , {S} =    2.88244   2.88244   0.00000   0.00001
   scf:  355    -2329.279914    -2329.279923    -2329.628226  0.000449 -1.465090  0.034869
     spin moment: S , {S} =    2.88299   2.88299   0.00000   0.00003
   scf:  356    -2329.279872    -2329.279897    -2329.628229  0.000286 -1.465072  0.034906
     spin moment: S , {S} =    2.88292   2.88292   0.00000   0.00002
   scf:  357    -2329.279903    -2329.279900    -2329.628225  0.000069 -1.465071  0.034899
     spin moment: S , {S} =    2.88283   2.88283   0.00000   0.00002
   scf:  358    -2329.279680    -2329.279790    -2329.628093  0.000326 -1.464865  0.034973
     spin moment: S , {S} =    2.87853   2.87853   0.00000   0.00002
   scf:  359    -2329.280011    -2329.279898    -2329.628225  0.000398 -1.465066  0.034905
     spin moment: S , {S} =    2.88278   2.88278   0.00000   0.00002
   scf:  360    -2329.280199    -2329.280045    -2329.628400  0.000780 -1.465304  0.034825
     spin moment: S , {S} =    2.88813   2.88813   0.00000   0.00002
   scf:  361    -2329.280028    -2329.280036    -2329.628409  0.000249 -1.465299  0.034845
     spin moment: S , {S} =    2.88829   2.88829   0.00000   0.00001
   scf:  362    -2329.280493    -2329.280260    -2329.628617  0.000476 -1.465627  0.034680
     spin moment: S , {S} =    2.89503   2.89503   0.00000   0.00002
   scf:  363    -2329.280182    -2329.280221    -2329.628584  0.000137 -1.465586  0.034706
     spin moment: S , {S} =    2.89406   2.89406   0.00000   0.00002
   scf:  364    -2329.280409    -2329.280313    -2329.628701  0.000387 -1.465812  0.034635
     spin moment: S , {S} =    2.89829   2.89829   0.00000   0.00003
   scf:  365    -2329.280432    -2329.280372    -2329.628771  0.000164 -1.465936  0.034592
     spin moment: S , {S} =    2.90073   2.90073   0.00000   0.00002
   scf:  366    -2329.280350    -2329.280361    -2329.628764  0.000098 -1.465921  0.034605
     spin moment: S , {S} =    2.90041   2.90041   0.00000   0.00002
   scf:  367    -2329.280452    -2329.280405    -2329.628753  0.001309 -1.465933  0.034503
     spin moment: S , {S} =    2.90119   2.90119   0.00000   0.00003
   scf:  368    -2329.280333    -2329.280370    -2329.628696  0.000358 -1.465824  0.034512
     spin moment: S , {S} =    2.89947   2.89947   0.00000   0.00002
   scf:  369    -2329.279800    -2329.280080    -2329.628402  0.001367 -1.465450  0.034692
     spin moment: S , {S} =    2.89059   2.89059   0.00000   0.00002
   scf:  370    -2329.279824    -2329.279951    -2329.628266  0.001053 -1.465289  0.034758
     spin moment: S , {S} =    2.88685   2.88685   0.00000   0.00001
   scf:  371    -2329.279388    -2329.279663    -2329.627963  0.000724 -1.464801  0.034989
     spin moment: S , {S} =    2.87638   2.87638   0.00000   0.00001
   scf:  372    -2329.280578    -2329.280100    -2329.628456  0.001085 -1.465596  0.034683
     spin moment: S , {S} =    2.89263   2.89263   0.00000   0.00002
   scf:  373    -2329.280221    -2329.280160    -2329.628522  0.000304 -1.465669  0.034647
     spin moment: S , {S} =    2.89466   2.89466   0.00000   0.00001
   scf:  374    -2329.280023    -2329.280092    -2329.628454  0.000305 -1.465583  0.034690
     spin moment: S , {S} =    2.89259   2.89259   0.00000   0.00001
   scf:  375    -2329.280091    -2329.280091    -2329.628456  0.000053 -1.465586  0.034693
     spin moment: S , {S} =    2.89262   2.89262   0.00000   0.00001
   scf:  376    -2329.280103    -2329.280097    -2329.628430  0.000881 -1.465558  0.034650
     spin moment: S , {S} =    2.89242   2.89242   0.00000   0.00001
   scf:  377    -2329.280099    -2329.280098    -2329.628434  0.000024 -1.465554  0.034649
     spin moment: S , {S} =    2.89256   2.89256   0.00000   0.00001
   scf:  378    -2329.280140    -2329.280119    -2329.628455  0.000051 -1.465603  0.034633
     spin moment: S , {S} =    2.89330   2.89330   0.00000   0.00001
[...]
     spin moment: S , {S} =    3.54741   3.54741   0.00000   0.00000
   scf:  921    -2329.298058    -2329.297539    -2329.645415  0.000939 -1.504642  0.028411
     spin moment: S , {S} =    3.56164   3.56164   0.00000   0.00000
   scf:  922    -2329.296478    -2329.297025    -2329.645052  0.001139 -1.503589  0.028501
     spin moment: S , {S} =    3.54483   3.54483   0.00000   0.00000
   scf:  923    -2329.294239    -2329.295558    -2329.643954  0.003329 -1.500576  0.028726
     spin moment: S , {S} =    3.49632   3.49632   0.00000   0.00000
   scf:  924    -2329.296518    -2329.296006    -2329.644303  0.000976 -1.501521  0.028655
     spin moment: S , {S} =    3.51112   3.51112   0.00000   0.00000
   scf:  925    -2329.296492    -2329.296239    -2329.644483  0.001023 -1.502013  0.028583
     spin moment: S , {S} =    3.51815   3.51815   0.00000   0.00000
   scf:  926    -2329.296542    -2329.296388    -2329.644585  0.000335 -1.502252  0.028474
     spin moment: S , {S} =    3.52216   3.52216   0.00000   0.00000
   scf:  927    -2329.295962    -2329.296182    -2329.644408  0.001237 -1.501655  0.028398
     spin moment: S , {S} =    3.51498   3.51498   0.00000   0.00000
   scf:  928    -2329.296631    -2329.296393    -2329.644567  0.000478 -1.502112  0.028370
     spin moment: S , {S} =    3.52194   3.52194   0.00000   0.00000
   scf:  929    -2329.298562    -2329.297357    -2329.645276  0.002196 -1.504125  0.028228
     spin moment: S , {S} =    3.55392   3.55392   0.00000   0.00000
   scf:  930    -2329.291687    -2329.293763    -2329.642468  0.008344 -1.496405  0.028750
     spin moment: S , {S} =    3.43258   3.43258   0.00000   0.00000
   scf:  931    -2329.297117    -2329.295227    -2329.643679  0.003535 -1.499733  0.028608
     spin moment: S , {S} =    3.48315   3.48315   0.00000   0.00000
   scf:  932    -2329.292232    -2329.293596    -2329.642352  0.003841 -1.496008  0.028816
     spin moment: S , {S} =    3.42748   3.42748   0.00000   0.00000
   scf:  933    -2329.305565    -2329.297991    -2329.645720  0.010142 -1.505602  0.028183
     spin moment: S , {S} =    3.57514   3.57514   0.00000   0.00000
   scf:  934    -2329.294300    -2329.295989    -2329.644273  0.004520 -1.501434  0.028533
     spin moment: S , {S} =    3.50868   3.50868   0.00000   0.00000
   scf:  935    -2329.297567    -2329.296708    -2329.644809  0.001565 -1.502806  0.028346
     spin moment: S , {S} =    3.53247   3.53247   0.00000   0.00000
   scf:  936    -2329.297151    -2329.296913    -2329.644970  0.000563 -1.503304  0.028380
     spin moment: S , {S} =    3.53959   3.53959   0.00000   0.00000
   scf:  937    -2329.292093    -2329.294036    -2329.642704  0.006844 -1.496990  0.028692
     spin moment: S , {S} =    3.44192   3.44192   0.00000   0.00000
   scf:  938    -2329.300043    -2329.296514    -2329.644577  0.005312 -1.502275  0.028068
     spin moment: S , {S} =    3.52292   3.52292   0.00000   0.00000
   scf:  939    -2329.302300    -2329.298824    -2329.646258  0.005708 -1.507250  0.027925
     spin moment: S , {S} =    3.60267   3.60267   0.00000   0.00000
   scf:  940    -2329.294177    -2329.296204    -2329.644387  0.006118 -1.501787  0.028315
     spin moment: S , {S} =    3.51411   3.51411   0.00000   0.00000
   scf:  941    -2329.295044    -2329.295625    -2329.643990  0.001441 -1.500574  0.028536
     spin moment: S , {S} =    3.49649   3.49649   0.00000   0.00000
   scf:  942    -2329.291704    -2329.293370    -2329.642124  0.005577 -1.495478  0.028736
     spin moment: S , {S} =    3.41787   3.41787   0.00000   0.00000
   scf:  943    -2329.305382    -2329.297763    -2329.645566  0.010488 -1.505168  0.028259
     spin moment: S , {S} =    3.56754   3.56754   0.00000   0.00000
   scf:  944    -2329.292147    -2329.294236    -2329.642819  0.008546 -1.497496  0.028569
     spin moment: S , {S} =    3.44696   3.44696   0.00000   0.00000
   scf:  945    -2329.294724    -2329.294461    -2329.643057  0.001630 -1.498090  0.028717
     spin moment: S , {S} =    3.45640   3.45640   0.00000   0.00000
   scf:  946    -2329.307242    -2329.299057    -2329.646463  0.010803 -1.507871  0.028143
     spin moment: S , {S} =    3.61136   3.61136   0.00000   0.00000
   scf:  947    -2329.298431    -2329.298758    -2329.646243  0.000758 -1.507332  0.028156
     spin moment: S , {S} =    3.60120   3.60120   0.00000   0.00000
   scf:  948    -2329.294150    -2329.296186    -2329.644428  0.005910 -1.501715  0.028447
     spin moment: S , {S} =    3.51574   3.51574   0.00000   0.00000
   scf:  949    -2329.296824    -2329.296487    -2329.644616  0.000575 -1.502391  0.028346
     spin moment: S , {S} =    3.52405   3.52405   0.00000   0.00000
   scf:  950    -2329.291345    -2329.293315    -2329.642086  0.007462 -1.495297  0.028781
     spin moment: S , {S} =    3.41626   3.41626   0.00000   0.00000
   scf:  951    -2329.295559    -2329.294328    -2329.642908  0.002325 -1.497659  0.028613
     spin moment: S , {S} =    3.45058   3.45058   0.00000   0.00000
   scf:  952    -2329.297487    -2329.295707    -2329.644044  0.003477 -1.500797  0.028540
     spin moment: S , {S} =    3.49873   3.49873   0.00000   0.00000
   scf:  953    -2329.302885    -2329.298531    -2329.646096  0.006617 -1.506806  0.028176
     spin moment: S , {S} =    3.59389   3.59389   0.00000   0.00000
   scf:  954    -2329.293858    -2329.295875    -2329.644198  0.006074 -1.501221  0.028610
     spin moment: S , {S} =    3.50516   3.50516   0.00000   0.00000
   scf:  955    -2329.296125    -2329.295997    -2329.644212  0.002260 -1.501356  0.028285
     spin moment: S , {S} =    3.50655   3.50655   0.00000   0.00000
   scf:  956    -2329.295842    -2329.295918    -2329.644192  0.001012 -1.501373  0.028433
     spin moment: S , {S} =    3.50533   3.50533   0.00000   0.00000
   scf:  957    -2329.295243    -2329.295589    -2329.643932  0.000793 -1.500690  0.028441
     spin moment: S , {S} =    3.49419   3.49419   0.00000   0.00000
   scf:  958    -2329.294071    -2329.294821    -2329.643304  0.001928 -1.498917  0.028431
     spin moment: S , {S} =    3.46772   3.46772   0.00000   0.00000
   scf:  959    -2329.295120    -2329.294964    -2329.643415  0.000316 -1.499247  0.028399
     spin moment: S , {S} =    3.47244   3.47244   0.00000   0.00000
   scf:  960    -2329.296403    -2329.295626    -2329.643933  0.001524 -1.500648  0.028294
     spin moment: S , {S} =    3.49463   3.49463   0.00000   0.00000
   scf:  961    -2329.301413    -2329.297980    -2329.645689  0.005585 -1.505544  0.028075
     spin moment: S , {S} =    3.57397   3.57397   0.00000   0.00000
   scf:  962    -2329.296961    -2329.297496    -2329.645334  0.001247 -1.504421  0.028054
     spin moment: S , {S} =    3.55701   3.55701   0.00000   0.00000
   scf:  963    -2329.297147    -2329.297333    -2329.645208  0.000431 -1.504115  0.028036
     spin moment: S , {S} =    3.55122   3.55122   0.00000   0.00000
   scf:  964    -2329.294498    -2329.295842    -2329.644101  0.003402 -1.501006  0.028248
     spin moment: S , {S} =    3.50198   3.50198   0.00000   0.00000
   scf:  965    -2329.298435    -2329.296990    -2329.644957  0.002597 -1.503416  0.028053
     spin moment: S , {S} =    3.53976   3.53976   0.00000   0.00000
   scf:  966    -2329.294576    -2329.295735    -2329.644010  0.002895 -1.500822  0.028239
     spin moment: S , {S} =    3.49807   3.49807   0.00000   0.00000
   scf:  967    -2329.295895    -2329.295811    -2329.644074  0.000203 -1.500970  0.028245
     spin moment: S , {S} =    3.50078   3.50078   0.00000   0.00000
   scf:  968    -2329.294075    -2329.294923    -2329.643347  0.002192 -1.499030  0.028267
     spin moment: S , {S} =    3.47013   3.47013   0.00000   0.00000
   scf:  969    -2329.295932    -2329.295393    -2329.643729  0.001133 -1.500085  0.028233
     spin moment: S , {S} =    3.48620   3.48620   0.00000   0.00000
   scf:  970    -2329.295415    -2329.295402    -2329.643743  0.000251 -1.500100  0.028256
     spin moment: S , {S} =    3.48673   3.48673   0.00000   0.00000
   scf:  971    -2329.294639    -2329.295025    -2329.643447  0.000857 -1.499258  0.028311
     spin moment: S , {S} =    3.47419   3.47419   0.00000   0.00000
   scf:  972    -2329.296542    -2329.295723    -2329.643985  0.001555 -1.500781  0.028184
     spin moment: S , {S} =    3.49716   3.49716   0.00000   0.00000
   scf:  973    -2329.297981    -2329.296733    -2329.644742  0.002281 -1.502845  0.028008
     spin moment: S , {S} =    3.53041   3.53041   0.00000   0.00000
   scf:  974    -2329.296637    -2329.296689    -2329.644700  0.000388 -1.502759  0.027978
     spin moment: S , {S} =    3.52859   3.52859   0.00000   0.00000
   scf:  975    -2329.297472    -2329.297049    -2329.644977  0.000882 -1.503531  0.027967
     spin moment: S , {S} =    3.54091   3.54091   0.00000   0.00000
   scf:  976    -2329.293715    -2329.295241    -2329.643573  0.004272 -1.499589  0.028138
     spin moment: S , {S} =    3.48004   3.48004   0.00000   0.00000
   scf:  977    -2329.294854    -2329.295042    -2329.643442  0.001986 -1.499212  0.028306
     spin moment: S , {S} =    3.47392   3.47392   0.00000   0.00000
   scf:  978    -2329.297037    -2329.295946    -2329.644118  0.003014 -1.501185  0.028016
     spin moment: S , {S} =    3.50326   3.50326   0.00000   0.00000
   scf:  979    -2329.296527    -2329.296218    -2329.644337  0.000683 -1.501765  0.028010
     spin moment: S , {S} =    3.51270   3.51270   0.00000   0.00000
   scf:  980    -2329.296885    -2329.296526    -2329.644590  0.001023 -1.502440  0.028035
     spin moment: S , {S} =    3.52362   3.52362   0.00000   0.00000
   scf:  981    -2329.295415    -2329.295977    -2329.644161  0.001306 -1.501210  0.028069
     spin moment: S , {S} =    3.50505   3.50505   0.00000   0.00000
   scf:  982    -2329.296504    -2329.296225    -2329.644350  0.000561 -1.501777  0.028035
     spin moment: S , {S} =    3.51324   3.51324   0.00000   0.00000
   scf:  983    -2329.296737    -2329.296466    -2329.644529  0.000588 -1.502279  0.027988
     spin moment: S , {S} =    3.52105   3.52105   0.00000   0.00000
   scf:  984    -2329.294984    -2329.295717    -2329.643974  0.002021 -1.500744  0.028149
     spin moment: S , {S} =    3.49683   3.49683   0.00000   0.00000
   scf:  985    -2329.296560    -2329.296111    -2329.644270  0.001009 -1.501527  0.028078
     spin moment: S , {S} =    3.50968   3.50968   0.00000   0.00000
   scf:  986    -2329.294572    -2329.295333    -2329.643658  0.001809 -1.499777  0.028165
     spin moment: S , {S} =    3.48358   3.48358   0.00000   0.00000
   scf:  987    -2329.297387    -2329.296256    -2329.644395  0.002213 -1.501852  0.028099
     spin moment: S , {S} =    3.51502   3.51502   0.00000   0.00000
   scf:  988    -2329.294657    -2329.295447    -2329.643751  0.001962 -1.500165  0.028150
     spin moment: S , {S} =    3.48741   3.48741   0.00000   0.00000
   scf:  989    -2329.295548    -2329.295496    -2329.643785  0.000257 -1.500265  0.028126
     spin moment: S , {S} =    3.48888   3.48888   0.00000   0.00000
   scf:  990    -2329.294244    -2329.294867    -2329.643275  0.001506 -1.498891  0.028178
     spin moment: S , {S} =    3.46736   3.46736   0.00000   0.00000
   scf:  991    -2329.295944    -2329.295367    -2329.643681  0.001192 -1.500010  0.028137
     spin moment: S , {S} =    3.48446   3.48446   0.00000   0.00000
   scf:  992    -2329.295975    -2329.295651    -2329.643920  0.000759 -1.500605  0.028145
     spin moment: S , {S} =    3.49455   3.49455   0.00000   0.00000
   scf:  993    -2329.295822    -2329.295734    -2329.643970  0.000545 -1.500758  0.028093
     spin moment: S , {S} =    3.49683   3.49683   0.00000   0.00000
   scf:  994    -2329.294850    -2329.295296    -2329.643626  0.001025 -1.499861  0.028145
     spin moment: S , {S} =    3.48212   3.48212   0.00000   0.00000
   scf:  995    -2329.295186    -2329.295242    -2329.643590  0.000292 -1.499743  0.028177
     spin moment: S , {S} =    3.48054   3.48054   0.00000   0.00000
   scf:  996    -2329.294831    -2329.295042    -2329.643420  0.000809 -1.499281  0.028165
     spin moment: S , {S} =    3.47345   3.47345   0.00000   0.00000
   scf:  997    -2329.296637    -2329.295766    -2329.644018  0.002002 -1.500881  0.028158
     spin moment: S , {S} =    3.49868   3.49868   0.00000   0.00000
   scf:  998    -2329.294720    -2329.295246    -2329.643596  0.001278 -1.499775  0.028182
     spin moment: S , {S} =    3.48073   3.48073   0.00000   0.00000
   scf:  999    -2329.295361    -2329.295299    -2329.643653  0.000563 -1.499859  0.028228
     spin moment: S , {S} =    3.48307   3.48307   0.00000   0.00000
   scf: 1000    -2329.294763    -2329.295038    -2329.643430  0.000835 -1.499333  0.028207
     spin moment: S , {S} =    3.47370   3.47370   0.00000   0.00000
SCF_NOT_CONV: SCF did not converge in maximum number of steps.
Geom step, scf iteration, dmax:    0  1000    0.002073

Using DM_out to compute the final energy and forces
No. of atoms with KB's overlaping orbs in proc 0. Max # of overlaps:       3      45

siesta: E_KS(eV) =            -2329.2950

siesta: E_KS - E_eggbox =     -2329.2950
     spin moment: S , {S} =    3.47370   3.47370   0.00000   0.00000

siesta: Atomic forces (eV/Ang):
----------------------------------------
   Tot    0.000000    0.000000   -0.000000
----------------------------------------
   Max    1.664706
   Res    0.784750    sqrt( Sum f_i^2 / 3N )
----------------------------------------
   Max    1.664706    constrained

Stress tensor Voigt[x,y,z,yz,xz,xy] (kbar):        2.74        2.74      -26.25        0.00       -0.00       -0.00
(Free)E + p*V (eV/cell)    -2327.7984
Target enthalpy (eV/cell)    -2329.6434

mulliken: Atomic and Orbital Populations:

Species: Fe                  

Atom      Orb        Charge      Spin       Svec
----------------------------------------------------------------
    1  1 4s         1.56796   0.07267     -0.025  -0.000   0.068
    1  2 4s        -0.02597   0.04636      0.017   0.000   0.043
    1  3 3dxy       1.24744   0.83218      0.144   0.000   0.820
    1  4 3dyz       1.41930   0.50831      0.095   0.000   0.499
    1  5 3dz2       1.38583   0.58466      0.094   0.000   0.577
    1  6 3dxz       1.41930   0.50831      0.095   0.000   0.499
    1  7 3dx2-y2    1.24066   0.83967      0.147   0.000   0.827
    1  8 3dxy      -0.06334   0.01960     -0.001  -0.000  -0.020
    1  9 3dyz      -0.09854   0.00668      0.006  -0.000   0.004
    1 10 3dz2      -0.06414   0.01628     -0.001  -0.000  -0.016
    1 11 3dxz      -0.09854   0.00668      0.006  -0.000   0.004
    1 12 3dx2-y2   -0.06320   0.02034     -0.001  -0.000  -0.020
    1 13 4Ppy       0.06954   0.00542      0.005   0.000   0.001
    1 14 4Ppz      -0.00703   0.01125      0.011   0.000   0.001
    1 15 4Ppx       0.06954   0.00542      0.005   0.000   0.001
    1     Total     7.99879   3.34099      0.597   0.000   3.287

    2  1 4s         1.01591   0.02388      0.024  -0.000   0.000
    2  2 4s         0.12867   0.04499      0.045   0.000  -0.000
    2  3 3dxy       1.32698   0.77231      0.772   0.000  -0.000
    2  4 3dyz       1.46585   0.23819      0.238   0.000   0.000
    2  5 3dz2       1.41561   0.25963      0.260   0.000   0.000
    2  6 3dxz       1.46585   0.23819      0.238   0.000   0.000
    2  7 3dx2-y2    1.36286   0.73838      0.738   0.000   0.000
    2  8 3dxy      -0.08906   0.02676     -0.027  -0.000   0.000
    2  9 3dyz      -0.12891   0.01182      0.012   0.000  -0.000
    2 10 3dz2      -0.08306   0.01570     -0.016  -0.000  -0.000
    2 11 3dxz      -0.12891   0.01182      0.012   0.000  -0.000
    2 12 3dx2-y2   -0.09378   0.02450     -0.024  -0.000  -0.000
    2 13 4Ppy       0.20219   0.00253     -0.003  -0.000  -0.000
    2 14 4Ppz      -0.05999   0.01241      0.012   0.000   0.000
    2 15 4Ppx       0.20219   0.00253     -0.003  -0.000  -0.000
    2     Total     8.00241   2.27961      2.280   0.000   0.000

    3  1 4s         1.56796   0.07267     -0.025  -0.000  -0.068
    3  2 4s        -0.02597   0.04636      0.017   0.000  -0.043
    3  3 3dxy       1.24746   0.83216      0.144   0.000  -0.820
    3  4 3dyz       1.41930   0.50831      0.095   0.000  -0.499
    3  5 3dz2       1.38583   0.58466      0.094   0.000  -0.577
    3  6 3dxz       1.41930   0.50831      0.095   0.000  -0.499
    3  7 3dx2-y2    1.24065   0.83968      0.147   0.000  -0.827
    3  8 3dxy      -0.06334   0.01960     -0.001  -0.000   0.020
    3  9 3dyz      -0.09854   0.00668      0.006  -0.000  -0.004
    3 10 3dz2      -0.06414   0.01628     -0.001  -0.000   0.016
    3 11 3dxz      -0.09854   0.00668      0.006  -0.000  -0.004
    3 12 3dx2-y2   -0.06320   0.02034     -0.001  -0.000   0.020
    3 13 4Ppy       0.06954   0.00542      0.005   0.000  -0.001
    3 14 4Ppz      -0.00703   0.01125      0.011   0.000  -0.001
    3 15 4Ppx       0.06954   0.00542      0.005   0.000  -0.001
    3     Total     7.99879   3.34099      0.597   0.000  -3.287

----------------------------------------------------------------
Total              24.00000   3.47370      3.474   0.000   0.000


siesta: Program's energy decomposition (eV):
siesta: Ebs     =      -101.299702
siesta: Eions   =      2135.854221
siesta: Ena     =        70.279367
siesta: Ekin    =      2374.831554
siesta: Enl     =     -1460.232765
siesta: Eso     =         0.000000
siesta: Edftu   =         0.000000
siesta: DEna    =        -4.758988
siesta: DUscf   =         0.751895
siesta: DUext   =         0.000000
siesta: Exc     =     -1174.311879
siesta: eta*DQ  =         0.000000
siesta: Emadel  =         0.000000
siesta: Emeta   =         0.000000
siesta: Emolmec =         0.000000
siesta: Ekinion =         0.000000
siesta: Eharris =     -2329.294763
siesta: Etot    =     -2329.295038
siesta: FreeEng =     -2329.643430

siesta: Final energy (eV):
siesta:  Band Struct. =    -101.299702
siesta:       Kinetic =    2374.831554
siesta:       Hartree =    1421.631162
siesta:       Edftu   =       0.000000
siesta:       Eso     =       0.000000
siesta:    Ext. field =       0.000000
siesta:   Exch.-corr. =   -1174.311879
siesta:  Ion-electron =   -4752.340350
siesta:       Ion-ion =    -199.105524
siesta:       Ekinion =       0.000000
siesta:         Total =   -2329.295038
siesta:         Fermi =      -1.499333

siesta: Atomic forces (eV/Ang):
siesta:      1    0.000000    0.000000    1.664706
siesta:      2    0.000000    0.000000   -0.000000
siesta:      3   -0.000000    0.000000   -1.664705
siesta: ----------------------------------------
siesta:    Tot    0.000000    0.000000   -0.000000

siesta: Stress tensor (static) (eV/Ang**3):
siesta:     0.001708    0.000000   -0.000000
siesta:    -0.000000    0.001708    0.000000
siesta:    -0.000000    0.000000   -0.016386

siesta: Cell volume =        426.771459 Ang**3

siesta: Pressure (static):
siesta:                Solid            Molecule  Units
siesta:           0.00004709         -0.00000753  Ry/Bohr**3
siesta:           0.00432327         -0.00069126  eV/Ang**3
siesta:           6.92672140         -1.10752673  kBar
(Free)E+ p_basis*V_orbitals  =       -2327.849349
(Free)Eharris+ p_basis*V_orbitals  =       -2327.849074
     spin moment: S , {S} =    3.47370   3.47370   0.00000   0.00000

siesta: Electric dipole (a.u.)  =    0.000000    0.000000   -0.000000
siesta: Electric dipole (Debye) =    0.000000    0.000000   -0.000000

cite: Please see "fe_clust_noncollinear-gga.bib" for an exhaustive BiBTeX file.
cite: Please clearly indicate Siesta version in published work: v4.1-b4-351
cite: This calculation has made use of the following articles
cite: which are encouraged to be cited in a published work.
        Primary SIESTA paper
          DOI: www.doi.org/10.1088/0953-8984/14/11/302

>> End of run:  22-JAN-2021  22:00:48
Job completed
