Siesta Version: siesta-3.2
Architecture  : SIESTA_ARCH
Compiler flags: FFLAGS
PARALLEL version
NetCDF support

* Running on    4 nodes in parallel
>> Start of run:  24-MAR-2013  18:27:21

                           ***********************       
                           *  WELCOME TO SIESTA  *       
                           ***********************       

reinit: Reading from standard input
************************** Dump of input data file ****************************
SystemName benzene with FIRE optimizer (Reduced set of variables)
SystemLabel fire_benzene
NumberOfSpecies 2
NumberOfAtoms   12
%block ChemicalSpeciesLabel
1    1 H
2    6 C
%endblock ChemicalSpeciesLabel
%block PS.Lmax
  C 2
%endblock PS.Lmax
AtomicCoordinatesFormat NotScaledCartesianAng
ZM.ForceTolLength 0.04 eV/Ang
ZM.ForceTolAngle 0.0001 eV/deg
ZM.MaxDisplLength 0.1 Ang
ZM.MaxDisplAngle 20.0 deg
%block Zmatrix
molecule
      2 0 0 0 xm1 ym1 zm1 0 0 0
      2 1 0 0 CC 90.0 60.0 0 0 0
      2 2 1 0 CC CCC 90.0 0 0 0
      2 3 2 1 CC CCC 0.0 0 0 0
      2 4 3 2 CC CCC 0.0 0 0 0
      2 5 4 3 CC CCC 0.0 0 0 0
      1 1 2 3 CH CCH 180.0 0 0 0
      1 2 1 7 CH CCH 0.0 0 0 0
      1 3 2 8 CH CCH 0.0 0 0 0
      1 4 3 9 CH CCH 0.0 0 0 0
      1 5 4 10 CH CCH 0.0 0 0 0
      1 6 5 11 CH CCH 0.0 0 0 0
constants
        ym1 3.68
        xm1 3.68
        zm1 6.9032294
variables
        CC 1.417
        CH 1.112
        CCH 120.0
        CCC 120.0
%endblock Zmatrix
ZM.UnitsLength Ang
ZM.UnitsAngle deg
MD.TypeOfRun FIRE
MD.NumCGSteps  4
MD.FIRE.TimeStep      0.3 fs
MD.FIRE.Mass           1.0
MD.FIRE.Debug          T
MD.FIRE.Nmin           5
MeshCutoff 120 Ry
PAO.EnergyShift 0.01 Ry
DM.NumberPulay 5
DM.MixingWeight 0.3
************************** End of input data file *****************************

reinit: -----------------------------------------------------------------------
reinit: System Name: benzene with FIRE optimizer (Reduced set of variables
reinit: -----------------------------------------------------------------------
reinit: System Label: fire_benzene                                                
reinit: -----------------------------------------------------------------------

initatom: Reading input for the pseudopotentials and atomic orbitals ----------
 Species number:            1  Label: H Atomic number:           1
 Species number:            2  Label: C Atomic number:           6
Ground state valence configuration:   1s01
Reading pseudopotential information in formatted form from H.psf

Valence configuration for pseudopotential generation:
1s( 1.00) rc: 1.25
2p( 0.00) rc: 1.25
3d( 0.00) rc: 1.25
4f( 0.00) rc: 1.25
Ground state valence configuration:   2s02  2p02
Reading pseudopotential information in formatted form from C.psf

Valence configuration for pseudopotential generation:
2s( 2.00) rc: 1.49
2p( 2.00) rc: 1.52
3d( 0.00) rc: 1.58
relmxkb: Read Max KB Ang. Momentum=    2 for species C
For H, standard SIESTA heuristics set lmxkb to 2
 (one more than the basis l, including polarization orbitals).
Use PS.lmax or PS.KBprojectors blocks to override.

<basis_specs>
===============================================================================
H                    Z=   1    Mass=  1.0100        Charge= 0.17977+309
Lmxo=0 Lmxkb= 2    BasisType=split      Semic=F
L=0  Nsemic=0  Cnfigmx=1
          n=1  nzeta=2  polorb=1
            splnorm:   0.15000    
               vcte:    0.0000    
               rinn:    0.0000    
                rcs:    0.0000      0.0000    
            lambdas:    1.0000      1.0000    
-------------------------------------------------------------------------------
L=0  Nkbl=1  erefs: 0.17977+309
L=1  Nkbl=1  erefs: 0.17977+309
L=2  Nkbl=1  erefs: 0.17977+309
===============================================================================
</basis_specs>

atom: Called for H                     (Z =   1)

read_vps: Pseudopotential generation method:
read_vps: ATM3      Troullier-Martins                       
Total valence charge:    1.00000

xc_check: Exchange-correlation functional:
xc_check: Ceperley-Alder
V l=0 = -2*Zval/r beyond r=  1.2343
V l=1 = -2*Zval/r beyond r=  1.2189
V l=2 = -2*Zval/r beyond r=  1.2189
All V_l potentials equal beyond r=  1.2343
This should be close to max(r_c) in ps generation
All pots = -2*Zval/r beyond r=  1.2343

VLOCAL1: 99.0% of the norm of Vloc inside     28.493 Ry
VLOCAL1: 99.9% of the norm of Vloc inside     64.935 Ry
atom: Maximum radius for 4*pi*r*r*local-pseudopot. charge    1.45251
atom: Maximum radius for r*vlocal+2*Zval:    1.21892
GHOST: No ghost state for L =  0
GHOST: No ghost state for L =  1
GHOST: No ghost state for L =  2

KBgen: Kleinman-Bylander projectors: 
   l= 0   rc=  1.364359   el= -0.467325   Ekb= -2.005361   kbcos= -0.336422
   l= 1   rc=  1.434438   el=  0.001430   Ekb= -0.501708   kbcos= -0.021697
   l= 2   rc=  1.470814   el=  0.002365   Ekb= -0.190555   kbcos= -0.002281

KBgen: Total number of  Kleinman-Bylander projectors:    9
atom: -------------------------------------------------------------------------

atom: SANKEY-TYPE ORBITALS:
atom: Selected multiple-zeta basis: split     

SPLIT: Orbitals with angular momentum L= 0

SPLIT: Basis orbitals for state 1s

SPLIT: PAO cut-off radius determined from an
SPLIT: energy shift=  0.010000 Ry

   izeta = 1
                 lambda =    1.000000
                     rc =    5.336316
                 energy =   -0.457946
                kinetic =    0.886710
    potential(screened) =   -1.344656
       potential(ionic) =   -1.876618

   izeta = 2
                 rmatch =    4.002347
              splitnorm =    0.150000
                 energy =   -0.355904
                kinetic =    1.439488
    potential(screened) =   -1.795392
       potential(ionic) =   -2.364690

POLgen: Perturbative polarization orbital with L=  1

POLgen: Polarization orbital for state 1s

   izeta = 1
                     rc =    5.336316
                 energy =    0.616245
                kinetic =    1.262150
    potential(screened) =   -0.645906
       potential(ionic) =   -1.116519
atom: Total number of Sankey-type orbitals:  5

atm_pop: Valence configuration (for local Pseudopot. screening):
 1s( 1.00)                                                            
Vna: chval, zval:    1.00000   1.00000

Vna:  Cut-off radius for the neutral-atom potential:   5.336316

atom: _________________________________________________________________________

<basis_specs>
===============================================================================
C                    Z=   6    Mass=  12.010        Charge= 0.17977+309
Lmxo=1 Lmxkb= 2    BasisType=split      Semic=F
L=0  Nsemic=0  Cnfigmx=2
          n=1  nzeta=2  polorb=0
            splnorm:   0.15000    
               vcte:    0.0000    
               rinn:    0.0000    
                rcs:    0.0000      0.0000    
            lambdas:    1.0000      1.0000    
L=1  Nsemic=0  Cnfigmx=2
          n=1  nzeta=2  polorb=1
            splnorm:   0.15000    
               vcte:    0.0000    
               rinn:    0.0000    
                rcs:    0.0000      0.0000    
            lambdas:    1.0000      1.0000    
-------------------------------------------------------------------------------
L=0  Nkbl=1  erefs: 0.17977+309
L=1  Nkbl=1  erefs: 0.17977+309
L=2  Nkbl=1  erefs: 0.17977+309
===============================================================================
</basis_specs>

atom: Called for C                     (Z =   6)

read_vps: Pseudopotential generation method:
read_vps: ATM3      Troullier-Martins                       
Total valence charge:    4.00000

xc_check: Exchange-correlation functional:
xc_check: Ceperley-Alder
V l=0 = -2*Zval/r beyond r=  1.4666
V l=1 = -2*Zval/r beyond r=  1.5038
V l=2 = -2*Zval/r beyond r=  1.5612
All V_l potentials equal beyond r=  1.5612
This should be close to max(r_c) in ps generation
All pots = -2*Zval/r beyond r=  1.5612

VLOCAL1: 99.0% of the norm of Vloc inside     17.809 Ry
VLOCAL1: 99.9% of the norm of Vloc inside     40.586 Ry
atom: Maximum radius for 4*pi*r*r*local-pseudopot. charge    1.88329
atom: Maximum radius for r*vlocal+2*Zval:    1.62091
GHOST: No ghost state for L =  0
GHOST: No ghost state for L =  1
GHOST: No ghost state for L =  2

KBgen: Kleinman-Bylander projectors: 
   l= 0   rc=  1.747182   el= -1.001947   Ekb=  5.181700   kbcos=  0.300603
   l= 1   rc=  1.747182   el= -0.398598   Ekb= -4.328763   kbcos= -0.367074
   l= 2   rc=  1.955272   el=  0.002326   Ekb= -1.016175   kbcos= -0.009979

KBgen: Total number of  Kleinman-Bylander projectors:    9
atom: -------------------------------------------------------------------------

atom: SANKEY-TYPE ORBITALS:
atom: Selected multiple-zeta basis: split     

SPLIT: Orbitals with angular momentum L= 0

SPLIT: Basis orbitals for state 2s

SPLIT: PAO cut-off radius determined from an
SPLIT: energy shift=  0.010000 Ry

   izeta = 1
                 lambda =    1.000000
                     rc =    4.518360
                 energy =   -0.992087
                kinetic =    0.856755
    potential(screened) =   -1.848843
       potential(ionic) =   -5.436865

   izeta = 2
                 rmatch =    3.475094
              splitnorm =    0.150000
                 energy =   -0.853594
                kinetic =    1.308346
    potential(screened) =   -2.161940
       potential(ionic) =   -6.002045

SPLIT: Orbitals with angular momentum L= 1

SPLIT: Basis orbitals for state 2p

SPLIT: PAO cut-off radius determined from an
SPLIT: energy shift=  0.010000 Ry

   izeta = 1
                 lambda =    1.000000
                     rc =    5.382558
                 energy =   -0.388318
                kinetic =    2.456485
    potential(screened) =   -2.844804
       potential(ionic) =   -6.312273

   izeta = 2
                 rmatch =    3.607901
              splitnorm =    0.150000
                 energy =   -0.250655
                kinetic =    3.636791
    potential(screened) =   -3.887446
       potential(ionic) =   -7.736789

POLgen: Perturbative polarization orbital with L=  2

POLgen: Polarization orbital for state 2p

   izeta = 1
                     rc =    5.382558
                 energy =    1.148490
                kinetic =    2.389078
    potential(screened) =   -1.240587
       potential(ionic) =   -4.090578
atom: Total number of Sankey-type orbitals: 13

atm_pop: Valence configuration (for local Pseudopot. screening):
 2s( 2.00)                                                            
 2p( 2.00)                                                            
Vna: chval, zval:    4.00000   4.00000

Vna:  Cut-off radius for the neutral-atom potential:   5.382558

atom: _________________________________________________________________________

prinput: Basis input ----------------------------------------------------------

PAO.BasisType split     

%block ChemicalSpeciesLabel
    1    1 H                       # Species index, atomic number, species label
    2    6 C                       # Species index, atomic number, species label
%endblock ChemicalSpeciesLabel

%block PAO.Basis                 # Define Basis set
H                     1                    # Species label, number of l-shells
 n=1   0   2 P   1                   # n, l, Nzeta, Polarization, NzetaPol
   5.336      4.002   
   1.000      1.000   
C                     2                    # Species label, number of l-shells
 n=2   0   2                         # n, l, Nzeta 
   4.518      3.475   
   1.000      1.000   
 n=2   1   2 P   1                   # n, l, Nzeta, Polarization, NzetaPol
   5.383      3.608   
   1.000      1.000   
%endblock PAO.Basis

prinput: ----------------------------------------------------------------------

Dumping basis to NetCDF file H.ion.nc
Dumping basis to NetCDF file C.ion.nc
coor:   Atomic-coordinates input format  =     Cartesian coordinates
coor:                                          (in Angstroms)
read_Zmatrix: Length units: Ang       
read_Zmatrix: Angle  units: deg       
read_Zmatrix: Force tolerances:
read_Zmatrix:    for lengths =     0.001556 Ry/Bohr
read_Zmatrix:    for angles  =     0.000421 Ry/rad

read_Zmatrix: Maximum displacements:
read_Zmatrix:    for lengths =     0.188973 Bohr
read_Zmatrix:    for angles  =     0.349066 rad
%block Zmatrix
molecule
      2 0 0 0 xm1 ym1 zm1 0 0 0
      2 1 0 0 CC 90.0 60.0 0 0 0
      2 2 1 0 CC CCC 90.0 0 0 0
      2 3 2 1 CC CCC 0.0 0 0 0
      2 4 3 2 CC CCC 0.0 0 0 0
      2 5 4 3 CC CCC 0.0 0 0 0
      1 1 2 3 CH CCH 180.0 0 0 0
      1 2 1 7 CH CCH 0.0 0 0 0
      1 3 2 8 CH CCH 0.0 0 0 0
      1 4 3 9 CH CCH 0.0 0 0 0
      1 5 4 10 CH CCH 0.0 0 0 0
      1 6 5 11 CH CCH 0.0 0 0 0
constants
        ym1 3.68
        xm1 3.68
        zm1 6.9032294
variables
        CC 1.417
        CH 1.112
        CCH 120.0
        CCC 120.0
%endblock Zmatrix

zmatrix: Z-matrix coordinates: (Ang ; deg )
zmatrix: (Fractional coordinates have been converted to cartesian)
molecule    1 (    12 atoms)
      3.68000000      3.68000000      6.90322940
      1.41700000     90.00000000     60.00000000
      1.41700000    120.00000000     90.00000000
      1.41700000    120.00000000      0.00000000
      1.41700000    120.00000000      0.00000000
      1.41700000    120.00000000      0.00000000
      1.11200000    120.00000000    180.00000000
      1.11200000    120.00000000      0.00000000
      1.11200000    120.00000000      0.00000000
      1.11200000    120.00000000      0.00000000
      1.11200000    120.00000000      0.00000000
      1.11200000    120.00000000      0.00000000


Z-matrix Symbol Section -------
Variables
 cc           1.4170000000000000     
 ccc          120.00000000000017     
 ch           1.1120000000000001     
 cch          120.00000000000017     
Constants
 xm1          3.6800000000000002     
 ym1          3.6800000000000002     
 zm1          6.9032293999999998     
------------ End of Z-matrix Information


siesta: Atomic coordinates (Bohr) and species
siesta:      6.95419   6.95419  13.04522  2        1
siesta:      8.29307   9.27319  13.04522  2        2
siesta:     10.97081   9.27319  13.04522  2        3
siesta:     12.30968   6.95419  13.04522  2        4
siesta:     10.97081   4.63520  13.04522  2        5
siesta:      8.29307   4.63520  13.04522  2        6
siesta:      4.85282   6.95419  13.04522  1        7
siesta:      7.24238  11.09303  13.04522  1        8
siesta:     12.02150  11.09303  13.04522  1        9
siesta:     14.41106   6.95419  13.04522  1       10
siesta:     12.02150   2.81536  13.04522  1       11
siesta:      7.24238   2.81536  13.04522  1       12

siesta: Automatic unit cell vectors (Ang):
siesta:   11.776283    0.000000    0.000000
siesta:    0.000000   11.030875    0.000000
siesta:    0.000000    0.000000    6.266317

siesta: System type = molecule  

initatomlists: Number of atoms, orbitals, and projectors:     12   108   108

siesta: ******************** Simulation parameters ****************************
siesta:
siesta: The following are some of the parameters of the simulation.
siesta: A complete list of the parameters used, including default values,
siesta: can be found in file out.fdf
siesta:
redata: Non-Collinear-spin run           =     F
redata: SpinPolarized (Up/Down) run      =     F
redata: Number of spin components        =     1
redata: Long output                      =     F
redata: Number of Atomic Species         =        2
redata: Charge density info will appear in .RHO file
redata: Write Mulliken Pop.              =     NO
redata: Mesh Cutoff                      =   120.0000  Ry
redata: Net charge of the system         =     0.0000 |e|
redata: Max. number of SCF Iter          =       50
redata: Performing Pulay mixing using    =     5 iterations
redata: Mix DM in first SCF step ?       =     F
redata: Write Pulay info on disk?        =     F
redata: Discard 1st Pulay DM after  kick =     F
redata: New DM Mixing Weight             =     0.3000
redata: New DM Occupancy tolerance       = 0.000000000001
redata: No kicks to SCF
redata: DM Mixing Weight for Kicks       =     0.5000
redata: DM Tolerance for SCF             =     0.000100
redata: Require Energy convergence for SCF =     F
redata: DM Energy tolerance for SCF      =     0.000100 eV
redata: Require Harris convergence for SCF =     F
redata: DM Harris energy tolerance for SCF =     0.000100 eV
redata: Using Saved Data (generic)   =     F
redata: Use continuation files for DM    =     F
redata: Neglect nonoverlap interactions  =     F
redata: Method of Calculation            =     Diagonalization
redata: Divide and Conquer               =     T
redata: Electronic Temperature           =     0.0019  Ry
redata: Fix the spin of the system       =     F
redata: Dynamics option                  =     FIRE coord. optimization
redata: Variable cell                    =     F
redata: Use continuation files for CG    =     F
redata: Max atomic displ per move        =     0.2000  Bohr
redata: Maximum number of CG moves       =        4
redata: Force tolerance                  =     0.0016  Ry/Bohr
redata: ***********************************************************************
Total number of electrons:    30.000000
Total ionic charge:    30.000000

* ProcessorY, Blocksize:    2  24

 Kpoints in:            1 . Kpoints trimmed:            1

siesta: k-grid: Number of k-points =     1
siesta: k-grid: Cutoff (effective) =     3.133 Ang
siesta: k-grid: Supercell and displacements
siesta: k-grid:    1   0   0      0.000
siesta: k-grid:    0   1   0      0.000
siesta: k-grid:    0   0   1      0.000

* Maximum dynamic memory allocated =     2 MB

siesta:                 ==============================
                            Begin CG move =      0

zmatrix: Z-matrix coordinates: (Ang ; deg )
zmatrix: (Fractional coordinates have been converted to cartesian)
molecule    1 (    12 atoms)
      3.68000000      3.68000000      6.90322940
      1.41700000     90.00000000     60.00000000
      1.41700000    120.00000000     90.00000000
      1.41700000    120.00000000      0.00000000
      1.41700000    120.00000000      0.00000000
      1.41700000    120.00000000      0.00000000
      1.11200000    120.00000000    180.00000000
      1.11200000    120.00000000      0.00000000
      1.11200000    120.00000000      0.00000000
      1.11200000    120.00000000      0.00000000
      1.11200000    120.00000000      0.00000000
      1.11200000    120.00000000      0.00000000


Z-matrix Symbol Section -------
Variables
 cc           1.4170000000000000     
 ccc          120.00000000000017     
 ch           1.1120000000000001     
 cch          120.00000000000017     
Constants
 xm1          3.6800000000000002     
 ym1          3.6800000000000002     
 zm1          6.9032293999999998     
------------ End of Z-matrix Information

                        ==============================

outcell: Unit cell vectors (Ang):
       11.776283    0.000000    0.000000
        0.000000   11.030875    0.000000
        0.000000    0.000000    6.266317

outcell: Cell vector modules (Ang)   :   11.776283   11.030875    6.266317
outcell: Cell angles (23,13,12) (deg):     90.0000     90.0000     90.0000
outcell: Cell volume (Ang**3)        :    814.0116
New_DM. Step:     1
Initializing Density Matrix...

InitMesh: MESH =    80 x    80 x    48 =      307200
InitMesh: Mesh cutoff (required, used) =   120.000   127.546 Ry

* Maximum dynamic memory allocated =    16 MB

stepf: Fermi-Dirac step function

siesta: Program's energy decomposition (eV):
siesta: Ebs     =      -450.458016
siesta: Eions   =      1613.953835
siesta: Ena     =       340.728180
siesta: Ekin    =       613.333480
siesta: Enl     =       -32.517563
siesta: DEna    =         0.000002
siesta: DUscf   =         0.000000
siesta: DUext   =         0.000000
siesta: Exc     =      -317.548229
siesta: eta*DQ  =         0.000000
siesta: Emadel  =         0.000000
siesta: Emeta   =         0.000000
siesta: Emolmec =         0.000000
siesta: Ekinion =         0.000000
siesta: Eharris =     -1027.088449
siesta: Etot    =     -1009.957965
siesta: FreeEng =     -1009.957965

siesta: iscf   Eharris(eV)      E_KS(eV)   FreeEng(eV)   dDmax  Ef(eV)
siesta:    1    -1027.0884    -1009.9580    -1009.9580  1.9553 -7.7332
timer: Routine,Calls,Time,% = IterSCF        1       5.430  71.73
elaps: Routine,Calls,Wall,% = IterSCF        1       1.360  71.58
siesta:    2    -1026.4534    -1021.6423    -1021.6423  0.2842 -1.6497
siesta:    3    -1023.9297    -1021.4694    -1021.4694  0.1891 -4.0587
siesta:    4    -1023.8477    -1023.1469    -1023.1469  0.0366 -4.5119
siesta:    5    -1023.8415    -1023.6519    -1023.6519  0.0079 -4.5250
siesta:    6    -1023.8404    -1023.7696    -1023.7696  0.0025 -4.4718
siesta:    7    -1023.8402    -1023.8308    -1023.8308  0.0003 -4.4705
siesta:    8    -1023.8402    -1023.8335    -1023.8335  0.0002 -4.4735
siesta:    9    -1023.8402    -1023.8393    -1023.8393  0.0001 -4.4736

siesta: E_KS(eV) =            -1023.8398

siesta: E_KS - E_eggbox =     -1023.8398

zmatrix: Atomic forces (eV/Ang ; eV/deg )
zmatrix: (No information if symbols are used)
molecule    1 (    12 atoms)
     1    0.000000    0.000000    0.000000
     2    0.000000    0.000000    0.000000
     3    0.000000    0.000000    0.000000
     4    0.000000    0.000000    0.000000
     5    0.000000    0.000000    0.000000
     6    0.000000    0.000000    0.000000
     7    0.000000    0.000000    0.000000
     8    0.000000    0.000000    0.000000
     9    0.000000    0.000000    0.000000
    10    0.000000    0.000000    0.000000
    11    0.000000    0.000000    0.000000
    12    0.000000    0.000000    0.000000


Variable forces (eV/Ang ; eV/deg )
 cc          -5.5598286541554085     
 ccc        -0.11977014382560133     
 ch         -0.80976365919582916     
 cch         5.48451927932944660E-005

siesta: Atomic forces (eV/Ang):
----------------------------------------
   Tot   -0.003382   -0.005301    0.003041
----------------------------------------
   Max    0.797887
   Res    0.327648    sqrt( Sum f_i^2 / 3N )
----------------------------------------
   Max    0.797887    constrained

Stress-tensor-Voigt (kbar):        8.64        8.61       -0.06        0.01        0.00        0.00
(Free)E + p*V (eV/cell)    -1026.7523
Target enthalpy (eV/cell)    -1023.8398
Fire_optim: No of elements:      4
 Power > 0
FIRE: step, dt, npos, alpha, magv, magf, long
FIREdat:     1    0.3000   1    0.1000    0.164901    0.549672    0
FIRE: nvar, x, v, f
           1   2.6680121353492945      -6.48723363797791275E-002 -0.21624112126593045     
           2   2.0716985634995146      -0.15131025929122438      -0.50436753097074793     
           3   2.0999590341437711      -9.44835960874637094E-003 -3.14945320291545733E-002
           4   2.0944054956014857       6.92880552478447424E-005  2.30960184159482475E-004

* Maximum dynamic memory allocated =    16 MB

siesta:                 ==============================
                            Begin CG move =      1

zmatrix: Z-matrix coordinates: (Ang ; deg )
zmatrix: (Fractional coordinates have been converted to cartesian)
molecule    1 (    12 atoms)
      3.68000000      3.68000000      6.90322940
      1.41185066     90.00000000     60.00000000
      1.41185066    118.69958411     90.00000000
      1.41185066    118.69958411      0.00000000
      1.41185066    118.69958411      0.00000000
      1.41185066    118.69958411      0.00000000
      1.11125002    120.00059549    180.00000000
      1.11125002    120.00059549      0.00000000
      1.11125002    120.00059549      0.00000000
      1.11125002    120.00059549      0.00000000
      1.11125002    120.00059549      0.00000000
      1.11125002    120.00059549      0.00000000


Z-matrix Symbol Section -------
Variables
 cc           1.4118506577477337     
 ccc          118.69958411183757     
 ch           1.1112500218110983     
 cch          120.00059548697062     
Constants
 xm1          3.6800000000000002     
 ym1          3.6800000000000002     
 zm1          6.9032293999999998     
------------ End of Z-matrix Information

                        ==============================

outcell: Unit cell vectors (Ang):
       11.776283    0.000000    0.000000
        0.000000   11.030875    0.000000
        0.000000    0.000000    6.266317

outcell: Cell vector modules (Ang)   :   11.776283   11.030875    6.266317
outcell: Cell angles (23,13,12) (deg):     90.0000     90.0000     90.0000
outcell: Cell volume (Ang**3)        :    814.0116
New_DM. Step:     2
Re-using DM from previous geometry...
Re-using DM without extrapolation (not allowed)
Density Matrix sparsity pattern changed.

siesta: iscf   Eharris(eV)      E_KS(eV)   FreeEng(eV)   dDmax  Ef(eV)
siesta:    1    -1023.3078    -1024.1260    -1024.1260  0.0976 -4.3760
siesta:    2    -1023.7438    -1022.9613    -1022.9613  0.1026 -5.1028
siesta:    3    -1023.1932    -1023.4481    -1023.4481  0.0270 -4.4933
siesta:    4    -1023.1917    -1023.1625    -1023.1625  0.0067 -4.4913
siesta:    5    -1023.1914    -1023.1709    -1023.1709  0.0030 -4.4835
siesta:    6    -1023.1914    -1023.1836    -1023.1836  0.0005 -4.4855
siesta:    7    -1023.1914    -1023.1862    -1023.1862  0.0002 -4.4868
siesta:    8    -1023.1914    -1023.1897    -1023.1897  0.0001 -4.4868

siesta: E_KS(eV) =            -1023.1906

zmatrix: Atomic forces (eV/Ang ; eV/deg )
zmatrix: (No information if symbols are used)
molecule    1 (    12 atoms)
     1    0.000000    0.000000    0.000000
     2    0.000000    0.000000    0.000000
     3    0.000000    0.000000    0.000000
     4    0.000000    0.000000    0.000000
     5    0.000000    0.000000    0.000000
     6    0.000000    0.000000    0.000000
     7    0.000000    0.000000    0.000000
     8    0.000000    0.000000    0.000000
     9    0.000000    0.000000    0.000000
    10    0.000000    0.000000    0.000000
    11    0.000000    0.000000    0.000000
    12    0.000000    0.000000    0.000000


Variable forces (eV/Ang ; eV/deg )
 cc           6.5274019978904789     
 ccc          1.3166682754604961     
 ch         -0.54143117751393055     
 cch        -9.32125589336646118E-003

siesta: Atomic forces (eV/Ang):
----------------------------------------
   Tot    0.011986   -0.002688    0.003205
----------------------------------------
   Max    8.849288
   Res    2.349201    sqrt( Sum f_i^2 / 3N )
----------------------------------------
   Max    8.849288    constrained

Stress-tensor-Voigt (kbar):       -0.02      -16.99       -0.05       11.70       -0.00        0.00
(Free)E + p*V (eV/cell)    -1020.3022
Target enthalpy (eV/cell)    -1023.1906
 Power < 0
FIRE: step, dt, npos, alpha, magv, magf, long
FIREdat:     2    0.1500   0    0.1000    1.665194    5.550648    0
FIRE: nvar, x, v, f
           1   2.6794364393458765       7.61620266438803178E-002  0.25387342214626774     
           2   2.3212082640771703        1.6633980038510374        5.5446600128367916     
           3   2.0990114175626036      -6.31744387444962974E-003 -2.10581462481654325E-002
           4   2.0926391100886668      -1.17759034187922013E-002 -3.92530113959740079E-002

* Maximum dynamic memory allocated =    16 MB

siesta:                 ==============================
                            Begin CG move =      2

zmatrix: Z-matrix coordinates: (Ang ; deg )
zmatrix: (Fractional coordinates have been converted to cartesian)
molecule    1 (    12 atoms)
      3.68000000      3.68000000      6.90322940
      1.41789614     90.00000000     60.00000000
      1.41789614    132.99543690     90.00000000
      1.41789614    132.99543690      0.00000000
      1.41789614    132.99543690      0.00000000
      1.41789614    132.99543690      0.00000000
      1.11074856    119.89938905    180.00000000
      1.11074856    119.89938905      0.00000000
      1.11074856    119.89938905      0.00000000
      1.11074856    119.89938905      0.00000000
      1.11074856    119.89938905      0.00000000
      1.11074856    119.89938905      0.00000000


Z-matrix Symbol Section -------
Variables
 cc           1.4178961366637328     
 ccc          132.99543690251011     
 ch           1.1107485649115258     
 cch          119.89938905209306     
Constants
 xm1          3.6800000000000002     
 ym1          3.6800000000000002     
 zm1          6.9032293999999998     
------------ End of Z-matrix Information

                        ==============================

outcell: Unit cell vectors (Ang):
       11.776283    0.000000    0.000000
        0.000000   11.030875    0.000000
        0.000000    0.000000    6.266317

outcell: Cell vector modules (Ang)   :   11.776283   11.030875    6.266317
outcell: Cell angles (23,13,12) (deg):     90.0000     90.0000     90.0000
outcell: Cell volume (Ang**3)        :    814.0116
New_DM. Step:     3
Re-using DM from previous geometry...
Re-using DM without extrapolation (not allowed)
Density Matrix sparsity pattern changed.

siesta: iscf   Eharris(eV)      E_KS(eV)   FreeEng(eV)   dDmax  Ef(eV)
siesta:    1    -1064.1072     -993.2632     -993.2632  0.9450 -3.8208
siesta:    2    -1588.4852     -863.1731     -863.1731  3.4983-10.6732
siesta:    3    -1022.8622     -987.5391     -987.5391  0.4936 -4.1254
siesta:    4    -1018.6097     -992.4179     -992.4179  0.9321 -4.2214
siesta:    5    -1016.3918     -994.4220     -994.4220  0.4803 -4.6732
siesta:    6    -1016.2944     -994.9954     -994.9954  0.4776 -4.6988
siesta:    7    -1016.0224    -1000.2458    -1000.2458  0.2333 -4.9363
siesta:    8    -1015.9317    -1007.9508    -1007.9508  0.2566 -4.9774
siesta:    9    -1015.8683    -1010.7392    -1010.7392  0.1043 -5.0593
siesta:   10    -1015.8490    -1014.9446    -1014.9446  0.0233 -4.9798
siesta:   11    -1015.8555    -1015.7386    -1015.7386  0.0740 -4.9772
siesta:   12    -1015.8474    -1015.7592    -1015.7592  0.0333 -4.9791
siesta:   13    -1015.8458    -1015.7584    -1015.7584  0.0033 -4.9712
siesta:   14    -1015.8458    -1015.7703    -1015.7703  0.0053 -4.9751
siesta:   15    -1015.8457    -1015.8159    -1015.8159  0.0016 -4.9740
siesta:   16    -1015.8457    -1015.8512    -1015.8512  0.0004 -4.9746
siesta:   17    -1015.8457    -1015.8548    -1015.8548  0.0004 -4.9743
siesta:   18    -1015.8457    -1015.8502    -1015.8502  0.0001 -4.9744

siesta: E_KS(eV) =            -1015.8489

zmatrix: Atomic forces (eV/Ang ; eV/deg )
zmatrix: (No information if symbols are used)
molecule    1 (    12 atoms)
     1    0.000000    0.000000    0.000000
     2    0.000000    0.000000    0.000000
     3    0.000000    0.000000    0.000000
     4    0.000000    0.000000    0.000000
     5    0.000000    0.000000    0.000000
     6    0.000000    0.000000    0.000000
     7    0.000000    0.000000    0.000000
     8    0.000000    0.000000    0.000000
     9    0.000000    0.000000    0.000000
    10    0.000000    0.000000    0.000000
    11    0.000000    0.000000    0.000000
    12    0.000000    0.000000    0.000000


Variable forces (eV/Ang ; eV/deg )
 cc          -12.142899913061601     
 ccc        -0.32990726575300539     
 ch          0.83827817973051311     
 cch        -1.58422128666727488E-002

siesta: Atomic forces (eV/Ang):
----------------------------------------
   Tot   -0.017075    0.014631   -0.000382
----------------------------------------
   Max    4.101506
   Res    1.565185    sqrt( Sum f_i^2 / 3N )
----------------------------------------
   Max    4.101506    constrained

Stress-tensor-Voigt (kbar):       16.43       15.51       -0.09        0.23        0.00       -0.01
(Free)E + p*V (eV/cell)    -1021.2427
Target enthalpy (eV/cell)    -1015.8489
 Power < 0
FIRE: step, dt, npos, alpha, magv, magf, long
FIREdat:     3    0.0750   0    0.1000    0.220386    1.469240    0
FIRE: nvar, x, v, f
           1   2.6741232925513434      -7.08419572604425951E-002 -0.47227971506961730     
           2   2.3055788408141931      -0.20839231017302939       -1.3892820678201960     
           3   2.0993782076255583       4.89053417272692931E-003  3.26035611515128609E-002
           4   2.0918885820584632      -1.00070404027127729E-002 -6.67136026847518215E-002

* Maximum dynamic memory allocated =    16 MB

siesta:                 ==============================
                            Begin CG move =      3

zmatrix: Z-matrix coordinates: (Ang ; deg )
zmatrix: (Fractional coordinates have been converted to cartesian)
molecule    1 (    12 atoms)
      3.68000000      3.68000000      6.90322940
      1.41508454     90.00000000     60.00000000
      1.41508454    132.09993691     90.00000000
      1.41508454    132.09993691      0.00000000
      1.41508454    132.09993691      0.00000000
      1.41508454    132.09993691      0.00000000
      1.11094266    119.85638696    180.00000000
      1.11094266    119.85638696      0.00000000
      1.11094266    119.85638696      0.00000000
      1.11094266    119.85638696      0.00000000
      1.11094266    119.85638696      0.00000000
      1.11094266    119.85638696      0.00000000


Z-matrix Symbol Section -------
Variables
 cc           1.4150845415824422     
 ccc          132.09993691331792     
 ch           1.1109426617766700     
 cch          119.85638696355612     
Constants
 xm1          3.6800000000000002     
 ym1          3.6800000000000002     
 zm1          6.9032293999999998     
------------ End of Z-matrix Information

                        ==============================

outcell: Unit cell vectors (Ang):
       11.776283    0.000000    0.000000
        0.000000   11.030875    0.000000
        0.000000    0.000000    6.266317

outcell: Cell vector modules (Ang)   :   11.776283   11.030875    6.266317
outcell: Cell angles (23,13,12) (deg):     90.0000     90.0000     90.0000
outcell: Cell volume (Ang**3)        :    814.0116
 Folding of H and S is implicitly performed
New_DM. Step:     4
Re-using DM from previous geometry...
Re-using DM without extrapolation (not allowed)
Density Matrix sparsity pattern changed.

siesta: iscf   Eharris(eV)      E_KS(eV)   FreeEng(eV)   dDmax  Ef(eV)
siesta:    1    -1016.2092    -1015.9377    -1015.9377  0.0452 -4.8297
siesta:    2    -1016.6783    -1016.1221    -1016.1221  0.3319 -5.0395
siesta:    3    -1016.1927    -1016.0176    -1016.0176  0.0278 -4.9047
siesta:    4    -1016.1957    -1016.1069    -1016.1069  0.0422 -4.8790
siesta:    5    -1016.1908    -1016.1553    -1016.1553  0.0069 -4.8986
siesta:    6    -1016.1907    -1016.1858    -1016.1858  0.0014 -4.8971
siesta:    7    -1016.1906    -1016.1882    -1016.1882  0.0003 -4.8961
siesta:    8    -1016.1906    -1016.1895    -1016.1895  0.0002 -4.8971
siesta:    9    -1016.1906    -1016.1900    -1016.1900  0.0001 -4.8972

siesta: E_KS(eV) =            -1016.1905

zmatrix: Atomic forces (eV/Ang ; eV/deg )
zmatrix: (No information if symbols are used)
molecule    1 (    12 atoms)
     1    0.000000    0.000000    0.000000
     2    0.000000    0.000000    0.000000
     3    0.000000    0.000000    0.000000
     4    0.000000    0.000000    0.000000
     5    0.000000    0.000000    0.000000
     6    0.000000    0.000000    0.000000
     7    0.000000    0.000000    0.000000
     8    0.000000    0.000000    0.000000
     9    0.000000    0.000000    0.000000
    10    0.000000    0.000000    0.000000
    11    0.000000    0.000000    0.000000
    12    0.000000    0.000000    0.000000


Variable forces (eV/Ang ; eV/deg )
 cc          -11.913604636391758     
 ccc        -0.36281610270375625     
 ch          0.70852834752346694     
 cch        -1.15017140925031611E-002

siesta: Atomic forces (eV/Ang):
----------------------------------------
   Tot    0.011375    0.007031   -0.003762
----------------------------------------
   Max    3.989635
   Res    1.521247    sqrt( Sum f_i^2 / 3N )
----------------------------------------
   Max    3.989635    constrained

Stress-tensor-Voigt (kbar):       16.51       15.19       -0.09       -1.07       -0.00        0.00
(Free)E + p*V (eV/cell)    -1021.5448
Target enthalpy (eV/cell)    -1016.1905
 Power > 0
FIRE: step, dt, npos, alpha, magv, magf, long
FIREdat:     4    0.0750   1    0.1000    0.340147    1.597555    0
FIRE: nvar, x, v, f
           1   2.6675588431817672      -0.10490205243055456      -0.46336162229871680     
           2   2.2856344469444196      -0.32322020510295446       -1.5278654268260754     
           3   2.0998143348625544       6.84842249377832623E-003  2.75571377910468797E-002
           4   2.0910267698040279      -1.33071501432199153E-002 -4.84352022421740622E-002

* Maximum dynamic memory allocated =    16 MB

siesta:                 ==============================
                            Begin CG move =      4

zmatrix: Z-matrix coordinates: (Ang ; deg )
zmatrix: (Fractional coordinates have been converted to cartesian)
molecule    1 (    12 atoms)
      3.68000000      3.68000000      6.90322940
      1.41161079     90.00000000     60.00000000
      1.41161079    130.95720732     90.00000000
      1.41161079    130.95720732      0.00000000
      1.41161079    130.95720732      0.00000000
      1.41161079    130.95720732      0.00000000
      1.11117345    119.80700876    180.00000000
      1.11117345    119.80700876      0.00000000
      1.11117345    119.80700876      0.00000000
      1.11117345    119.80700876      0.00000000
      1.11117345    119.80700876      0.00000000
      1.11117345    119.80700876      0.00000000


Z-matrix Symbol Section -------
Variables
 cc           1.4116107859583980     
 ccc          130.95720731963331     
 ch           1.1111734502795620     
 cch          119.80700875864433     
Constants
 xm1          3.6800000000000002     
 ym1          3.6800000000000002     
 zm1          6.9032293999999998     
------------ End of Z-matrix Information

                        ==============================

outcell: Unit cell vectors (Ang):
       11.776283    0.000000    0.000000
        0.000000   11.030875    0.000000
        0.000000    0.000000    6.266317

outcell: Cell vector modules (Ang)   :   11.776283   11.030875    6.266317
outcell: Cell angles (23,13,12) (deg):     90.0000     90.0000     90.0000
outcell: Cell volume (Ang**3)        :    814.0116
 Folding of H and S is implicitly performed
New_DM. Step:     5
Re-using DM from previous geometry...
Re-using DM without extrapolation (not allowed)
Density Matrix sparsity pattern changed.

siesta: iscf   Eharris(eV)      E_KS(eV)   FreeEng(eV)   dDmax  Ef(eV)
siesta:    1    -1016.7234    -1016.2907    -1016.2907  0.0613 -4.6996
siesta:    2    -1017.3835    -1016.5398    -1016.5398  0.2703 -5.0559
siesta:    3    -1016.6884    -1016.4176    -1016.4176  0.0555 -4.7758
siesta:    4    -1016.6920    -1016.5213    -1016.5213  0.0595 -4.7488
siesta:    5    -1016.6798    -1016.6141    -1016.6141  0.0053 -4.7751
siesta:    6    -1016.6797    -1016.6647    -1016.6647  0.0015 -4.7726
siesta:    7    -1016.6797    -1016.6739    -1016.6739  0.0006 -4.7713
siesta:    8    -1016.6797    -1016.6763    -1016.6763  0.0002 -4.7737
siesta:    9    -1016.6797    -1016.6782    -1016.6782  0.0001 -4.7724
siesta:   10    -1016.6797    -1016.6792    -1016.6792  0.0000 -4.7740

siesta: E_KS(eV) =            -1016.6796

zmatrix: Atomic forces (eV/Ang ; eV/deg )
zmatrix: (No information if symbols are used)
molecule    1 (    12 atoms)
     1    0.000000    0.000000    0.000000
     2    0.000000    0.000000    0.000000
     3    0.000000    0.000000    0.000000
     4    0.000000    0.000000    0.000000
     5    0.000000    0.000000    0.000000
     6    0.000000    0.000000    0.000000
     7    0.000000    0.000000    0.000000
     8    0.000000    0.000000    0.000000
     9    0.000000    0.000000    0.000000
    10    0.000000    0.000000    0.000000
    11    0.000000    0.000000    0.000000
    12    0.000000    0.000000    0.000000


Variable forces (eV/Ang ; eV/deg )
 cc          -11.717287089388323     
 ccc        -0.41640372565362466     
 ch          0.52727426092973562     
 cch        -5.96520494461999506E-003

siesta: Atomic forces (eV/Ang):
----------------------------------------
   Tot    0.017725   -0.011876   -0.001463
----------------------------------------
   Max    3.878842
   Res    1.462597    sqrt( Sum f_i^2 / 3N )
----------------------------------------
   Max    3.878842    constrained

Stress-tensor-Voigt (kbar):       16.51       14.97       -0.09       -2.89        0.00        0.00
(Free)E + p*V (eV/cell)    -1021.9964
Target enthalpy (eV/cell)    -1016.6796
 Power > 0
FIRE: step, dt, npos, alpha, magv, magf, long
FIREdat:     5    0.0750   2    0.1000    0.475819    1.812072    0
FIRE: nvar, x, v, f
           1   2.6585546372924309      -0.13714580909003782      -0.45572614841473813     
           2   2.2564165985265219      -0.45532868056724518       -1.7535298220961697     
           3   2.1003631520611945       8.08659518863336091E-003  2.05075344026822912E-002
           4   2.0900225212899377      -1.43319894796527618E-002 -2.51202477808945557E-002

* Maximum dynamic memory allocated =    16 MB

outcoor: Final (unrelaxed) atomic coordinates (Ang):        
    3.68000000    3.68000000    6.90322940   2       1  C
    4.38342298    4.89836435    6.90322940   2       2  C
    5.77184378    5.12530767    6.90322940   2       3  C
    6.82658704    4.19432313    6.90322940   2       4  C
    6.77379448    2.78846804    6.90322940   2       5  C
    5.65219965    1.93920918    6.90322940   2       6  C
    2.56854675    3.68485995    6.90322940   1       7  H
    3.82348752    5.85848112    6.90322940   1       8  H
    6.16047462    6.16661359    6.90322940   1       9  H
    7.87864826    4.55281879    6.90322940   1      10  H
    7.71739558    2.20112750    6.90322940   1      11  H
    5.79502662    0.83696039    6.90322940   1      12  H

zmatrix: Z-matrix coordinates: (Ang ; deg )
zmatrix: (Fractional coordinates have been converted to cartesian)
molecule    1 (    12 atoms)
      3.68000000      3.68000000      6.90322940
      1.40684597     90.00000000     60.00000000
      1.40684597    129.28314792     90.00000000
      1.40684597    129.28314792      0.00000000
      1.40684597    129.28314792      0.00000000
      1.40684597    129.28314792      0.00000000
      1.11146387    119.74946956    180.00000000
      1.11146387    119.74946956      0.00000000
      1.11146387    119.74946956      0.00000000
      1.11146387    119.74946956      0.00000000
      1.11146387    119.74946956      0.00000000
      1.11146387    119.74946956      0.00000000


Z-matrix Symbol Section -------
Variables
 cc           1.4068459672984968     
 ccc          129.28314791883480     
 ch           1.1114638717182868     
 cch          119.74946955720468     
Constants
 xm1          3.6800000000000002     
 ym1          3.6800000000000002     
 zm1          6.9032293999999998     
------------ End of Z-matrix Information


siesta: Program's energy decomposition (eV):
siesta: Ebs     =      -351.425678
siesta: Eions   =      1613.953835
siesta: Ena     =       344.976955
siesta: Ekin    =       714.722455
siesta: Enl     =      -112.825170
siesta: DEna    =       -27.038170
siesta: DUscf   =         3.349792
siesta: DUext   =         0.000000
siesta: Exc     =      -325.911585
siesta: eta*DQ  =         0.000000
siesta: Emadel  =         0.000000
siesta: Emeta   =         0.000000
siesta: Emolmec =         0.000000
siesta: Ekinion =         0.000000
siesta: Eharris =     -1016.679670
siesta: Etot    =     -1016.679558
siesta: FreeEng =     -1016.679558

siesta: Final energy (eV):
siesta:  Band Struct. =    -351.425678
siesta:       Kinetic =     714.722455
siesta:       Hartree =    1611.108155
siesta:    Ext. field =       0.000000
siesta:   Exch.-corr. =    -325.911585
siesta:  Ion-electron =   -3862.442380
siesta:       Ion-ion =     845.843797
siesta:       Ekinion =       0.000000
siesta:         Total =   -1016.679558

siesta: Atomic forces (eV/Ang):
siesta:      1    3.389037    2.266921    0.000451
siesta:      2   -1.499420   -2.646886    0.000150
siesta:      3    3.049909   -1.213253    0.000172
siesta:      4   -0.959083    1.150260   -0.000152
siesta:      5   -3.129881   -3.022043    0.000076
siesta:      6    1.165355    3.878842    0.000285
siesta:      7   -0.041615   -0.830558   -0.000239
siesta:      8   -0.705354   -0.091215   -0.000131
siesta:      9   -0.489499    0.095300   -0.000129
siesta:     10   -0.267677    0.538938   -0.000656
siesta:     11    0.367333    0.140860   -0.000905
siesta:     12   -0.861380   -0.279041   -0.000383
siesta: ----------------------------------------
siesta:    Tot    0.017725   -0.011876   -0.001463

siesta: Stress tensor (static) (eV/Ang**3):
siesta:     0.010303   -0.001805    0.000001
siesta:    -0.001803    0.009346    0.000001
siesta:     0.000001    0.000001   -0.000054

siesta: Cell volume =        814.011582 Ang**3

siesta: Pressure (static):
siesta:                Solid            Molecule  Units
siesta:          -0.00007114          0.00000017  Ry/Bohr**3
siesta:          -0.00653163          0.00001516  eV/Ang**3
siesta:         -10.46493131          0.02428909  kBar
(Free)E+ p_basis*V_orbitals  =       -1012.676364
(Free)Eharris+ p_basis*V_orbitals  =       -1012.676793

siesta: Electric dipole (a.u.)  =    0.236847    0.175595   -0.000077
siesta: Electric dipole (Debye) =    0.602006    0.446317   -0.000195

* Maximum dynamic memory allocated : Node    0 =    16 MB
* Maximum dynamic memory allocated : Node    1 =    11 MB
* Maximum dynamic memory allocated : Node    2 =    10 MB
* Maximum dynamic memory allocated : Node    3 =     8 MB

* Maximum memory occured during redistribXZ                   

timer: CPU execution times:
timer:  Routine       Calls   Time/call    Tot.time        %
timer:  siesta            1     104.069     104.069   100.00
timer:  Setup             1       1.079       1.079     1.04
timer:  bands             1       0.000       0.000     0.00
timer:  writewave         1       0.004       0.004     0.00
timer:  KSV_init          1       0.000       0.000     0.00
timer:  IterMD            5      20.590     102.952    98.93
timer:  hsparse           5       0.007       0.035     0.03
timer:  overlap           5       0.179       0.897     0.86
timer:  IterSCF          54       1.583      85.468    82.13
timer:  kinefsm          10       0.091       0.910     0.87
timer:  nlefsm           10       0.216       2.161     2.08
timer:  DHSCF            59       1.539      90.791    87.24
timer:  DHSCF1            1       0.124       0.124     0.12
timer:  DHSCF2            5       1.301       6.507     6.25
timer:  REORD           482       0.001       0.385     0.37
timer:  POISON           64       0.085       5.444     5.23
timer:  DHSCF3           59       1.348      79.530    76.42
timer:  rhoofd           59       0.332      19.565    18.80
timer:  cellXC           59       0.086       5.092     4.89
timer:  vmat             59       0.384      22.663    21.78
timer:  MolMec           10       0.000       0.000     0.00
timer:  diagon           54       0.041       2.189     2.10
timer:  r-eigvec         54       0.040       2.150     2.07
timer:  r-buildHS        54       0.000       0.004     0.00
timer:  rdiag            54       0.040       2.146     2.06
timer:  rdiag1           54       0.001       0.072     0.07
timer:  rdiag2           54       0.005       0.244     0.23
timer:  rdiag3           54       0.031       1.683     1.62
timer:  rdiag4           54       0.002       0.116     0.11
timer:  r-buildD         54       0.000       0.027     0.03
timer:  DHSCF4            5       0.907       4.534     4.36
timer:  dfscf             5       0.818       4.088     3.93
timer:  overfsm           5       0.009       0.046     0.04
timer:  optical           1       0.030       0.030     0.03
  

elaps: ELAPSED times:
elaps:  Routine       Calls   Time/call    Tot.time        %
elaps:  siesta            1      26.044      26.044   100.00
elaps:  Setup             1       0.274       0.274     1.05
elaps:  bands             1       0.000       0.000     0.00
elaps:  writewave         1       0.001       0.001     0.00
elaps:  KSV_init          1       0.000       0.000     0.00
elaps:  IterMD            5       5.152      25.759    98.91
elaps:  hsparse           5       0.002       0.011     0.04
elaps:  overlap           5       0.053       0.266     1.02
elaps:  IterSCF          54       0.396      21.380    82.09
elaps:  kinefsm          10       0.027       0.272     1.04
elaps:  nlefsm           10       0.057       0.568     2.18
elaps:  DHSCF            59       0.402      23.740    91.15
elaps:  DHSCF1            1       0.031       0.031     0.12
elaps:  DHSCF2            5       0.325       1.625     6.24
elaps:  REORD           482       0.000       0.087     0.33
elaps:  POISON           64       0.021       1.371     5.26
elaps:  DHSCF3           59       0.337      19.888    76.36
elaps:  rhoofd           59       0.194      11.422    43.86
elaps:  cellXC           59       0.022       1.276     4.90
elaps:  vmat             59       0.096       5.659    21.73
elaps:  MolMec           10       0.000       0.000     0.00
elaps:  diagon           54       0.010       0.554     2.13
elaps:  r-eigvec         54       0.010       0.536     2.06
elaps:  r-buildHS        54       0.000       0.002     0.01
elaps:  rdiag            54       0.010       0.534     2.05
elaps:  rdiag1           54       0.000       0.011     0.04
elaps:  rdiag2           54       0.001       0.066     0.25
elaps:  rdiag3           54       0.008       0.422     1.62
elaps:  rdiag4           54       0.001       0.027     0.10
elaps:  r-buildD         54       0.000       0.013     0.05
elaps:  DHSCF4            5       0.433       2.166     8.32
elaps:  dfscf             5       0.390       1.949     7.48
elaps:  overfsm           5       0.003       0.015     0.06
elaps:  optical           1       0.000       0.000     0.00
  
>> End of run:  24-MAR-2013  18:27:47
