Siesta Version  : v4.1-b4-351
Architecture    : x86_64-linux-n-62-26-19
Compiler version: GNU Fortran (GCC) 9.3.0
Compiler flags  : mpifort -m64 -fPIC -O3 -march=native -ftree-vectorize -fexpensive-optimizatioons -funroll-loops -fprefetch-loop-arrays -fno-second-underscore  -flto
PP flags        : -I/dtu/sw/dcc/SL73/2020-aug/generic/build-tools/1.0/include -I/dtu/sw/dcc/SL773/2020-aug/generic/gcc/9.3.0/include -I/dtu/sw/dcc/SL73/2020-aug/generic/gcc/9.3.0/include -I/dtu/sw/dcc/SL73/2020-aug/XeonE5-2660v3/gnu/9.3.0/zlib/1.2.11/include -I/dtu/sw/dcc/SL73/2020-aug/generic/numactl/2.0.12/include -I/dtu/sw/dcc/SL73/2020-aug/XeonE5-2660v3/gnu/9.3.0/libxml2/2.9.10/include -I/dtu/sw/dcc/SL73/2020-aug/XeonE5-2660v3/gnu/9.3.0/hwloc/2.2.0/include -I/dtu/sw/dcc/SL73/2020-aug/XeonE5-2660v3/gnu/9.3.0/knem/1.1.4/include -I/dtu/sw/dcc/SL73/2020-aug/XeonE5-2660v3/gnu/9.3.0/ucx/1.8.1/include -I/dtu/sw/dcc/SL73/2020-aug/XeonE5-2660v3/gnu/9.3.0/openmpi/4.0.4/include -I/dtu/sw/dcc/SL73/2020-aug/XeonE5-2660v3/gnu/9.3.0/szip/2.1.1/include -I/dtu/sw/dcc/SL73/2020-aug/XeonE5-2660v3/gnu/9.3.0/hdf5/1.12.0/include -I/dtu/sw/dcc/SL73/2020-aug/XeonE5-2660v3/gnu/9.3.0/pnetcdf/1.12.1/include -I/dtu/sw/dcc/SL73/2020-aug/generic/gen-zlib/1.2.11/include -I/dtu/sw/dcc/SL73/2020-aug/generic/openssl/1.1.1/include -I/dtu/sw/dcc/SL73/2020-aug/generic/libssh2/1.8.2/include -I/dtu/sw/dcc/SL73/2020-aug/generic/curl/7.65.1/include -I/dtu/sw/dcc/SL73/2020-aug/XeonE5-2660v3/gnu/9.3.0/netcdf/4.7.4/include -I/dtu/sw/dcc/SL73/2020-aug/XeonE5-2660v3/gnu/9.3.0/flook/0.8.1/include -I/dtu/sw/dcc/SL73/2020-aug/XeonE5-2660v3/gnu/9.3.0/fftw/3.3.8/include -I/dtu/sw/dcc/SL73/2020-aug/XeonE5-2660v3/gnu/9.3.0/parmetis/4.0.3/include -I/dtu/sw/dcc/SL73/2020-aug/XeonE5-2660v3/gnu/9.3.0/scalapack/2.1.0/include -I/dtu/sw/dcc/SL73/2020-aug/XeonE5-2660v3/gnu/9.3.0/lapack/3.9.0/include -I/dtu/sw/dcc/SL73/2020-aug/XeonE5-2660v3/gnu/9.3.0/blis/0.7.0/include -I/dtu/sw/dcc/SL73/2020-aug/XeonE5-2660v3/gnu/9.3.0/scotch/6.0.9/include -I/dtu/sw/dcc/SL73/2020-aug/XeonE5-2660v3/gnu/9.3.0/mumps/5.3.3/include -I/dtu/sw/dcc/SL73/2020-aug/XeonE5-2660v3/gnu/9.3.0/elpa/2020.05.001/include -DSIESTA__ELPA -DMPI -DFC_HAVE_FLUSH -DFC_HAVE_ABORT -DCDF -DCDF4 -DSIESTA__FLOOK  -DNCDF -DNCDF_4 -DNCDF_PARALLEL -DTS_NOCHECKS -DSIESTA__METIS -DSIESTA__MUMPS -DSIESTA__MRRR -I/dtu/sw/dcc/SL73/2020-aug/XeonE5-2660v3/gnu/9.3.0/elpa/2020.05.001/include/elpa
Libraries       : libncdf.a libfdict.a -lnetcdff -lnetcdf -lpnetcdf -lhdf5_hl -lhdf5 -lz  -lzmuumps -lmumps_common -lesmumps -lscotch -lscotcherr -lpord -lparmetis -lmetis -lelpa -lscalapack -llapack -lblis  -L/dtu/sw/dcc/SL73/2020-aug/XeonE5-2660v3/gnu/9.3.0/flook/0.8.1/lib -Wl,-rpath=/dtu/sw/dcc/SL73/2020-aug/XeonE5-2660v3/gnu/9.3.0/flook/0.8.1/lib -lflookall -ldl  -flto -fuse-linker-plugin  -lmetis
PARALLEL version
NetCDF support
NetCDF-4 support
NetCDF-4 MPI-IO support
METIS ordering support
Lua support

* Running on 8 nodes in parallel
>> Start of run:  22-JAN-2021  22:11:00

                           ***********************       
                           *  WELCOME TO SIESTA  *       
                           ***********************       

reinit: Reading from ../fire_benzene.fdf

reinit: -----------------------------------------------------------------------
reinit: System Name: benzene with FIRE optimizer (Reduced set of variables
reinit: -----------------------------------------------------------------------
reinit: System Label: fire_benzene
reinit: -----------------------------------------------------------------------

initatom: Reading input for the pseudopotentials and atomic orbitals ----------
Species number:   1 Atomic number:    1 Label: H
Species number:   2 Atomic number:    6 Label: C

Ground state valence configuration:   1s01
Reading pseudopotential information in formatted form from H.psf

Valence configuration for pseudopotential generation:
1s( 1.00) rc: 1.25
2p( 0.00) rc: 1.25
3d( 0.00) rc: 1.25
4f( 0.00) rc: 1.25
Ground state valence configuration:   2s02  2p02
Reading pseudopotential information in formatted form from C.psf

Valence configuration for pseudopotential generation:
2s( 2.00) rc: 1.49
2p( 2.00) rc: 1.52
3d( 0.00) rc: 1.58
relmxkb: Read Max KB Ang. Momentum=    2 for species C
For H, standard SIESTA heuristics set lmxkb to 2
 (one more than the basis l, including polarization orbitals).
Use PS.lmax or PS.KBprojectors blocks to override.

<basis_specs>
===============================================================================
H                    Z=   1    Mass=  1.0100        Charge= 0.17977+309
Lmxo=0 Lmxkb= 2    BasisType=split      Semic=F
L=0  Nsemic=0  Cnfigmx=1
          i=1  nzeta=2  polorb=1  (1s)
            splnorm:   0.15000    
               vcte:    0.0000    
               rinn:    0.0000    
               qcoe:    0.0000    
               qyuk:    0.0000    
               qwid:   0.10000E-01
                rcs:    0.0000      0.0000    
            lambdas:    1.0000      1.0000    
-------------------------------------------------------------------------------
L=0  Nkbl=1  erefs: 0.17977+309
L=1  Nkbl=1  erefs: 0.17977+309
L=2  Nkbl=1  erefs: 0.17977+309
===============================================================================
</basis_specs>

atom: Called for H                     (Z =   1)

read_vps: Pseudopotential generation method:
read_vps: ATM3      Troullier-Martins                       
Valence charge for ps generation:    1.00000

xc_check: Exchange-correlation functional:
xc_check: Ceperley-Alder
V l=0 = -2*Zval/r beyond r=  1.2343
V l=1 = -2*Zval/r beyond r=  1.2189
V l=2 = -2*Zval/r beyond r=  1.2189
All V_l potentials equal beyond r=  1.2343
This should be close to max(r_c) in ps generation
All pots = -2*Zval/r beyond r=  1.2343

VLOCAL1: 99.0% of the norm of Vloc inside     28.493 Ry
VLOCAL1: 99.9% of the norm of Vloc inside     64.935 Ry
atom: Maximum radius for 4*pi*r*r*local-pseudopot. charge    1.45251
atom: Maximum radius for r*vlocal+2*Zval:    1.21892
GHOST: No ghost state for L =  0
GHOST: No ghost state for L =  1
GHOST: No ghost state for L =  2

KBgen: Kleinman-Bylander projectors: 
   l= 0   rc=  1.364359   el= -0.467325   Ekb= -2.005361   kbcos= -0.336422
   l= 1   rc=  1.434438   el=  0.001430   Ekb= -0.501708   kbcos= -0.021697
   l= 2   rc=  1.470814   el=  0.002365   Ekb= -0.190555   kbcos= -0.002281

KBgen: Total number of  Kleinman-Bylander projectors:    9
atom: -------------------------------------------------------------------------

atom: SANKEY-TYPE ORBITALS:
atom: Selected multiple-zeta basis: split     

SPLIT: Orbitals with angular momentum L= 0

SPLIT: Basis orbitals for state 1s

SPLIT: PAO cut-off radius determined from an
SPLIT: energy shift=  0.010000 Ry

   izeta = 1
                 lambda =    1.000000
                     rc =    5.336316
                 energy =   -0.457946
                kinetic =    0.886710
    potential(screened) =   -1.344656
       potential(ionic) =   -1.876618

   izeta = 2
                 rmatch =    4.002347
              splitnorm =    0.150000
                 energy =   -0.355904
                kinetic =    1.439488
    potential(screened) =   -1.795392
       potential(ionic) =   -2.364690

POLgen: Perturbative polarization orbital with L=  1

POLgen: Polarization orbital for state 1s

   izeta = 1
                     rc =    5.336316
                 energy =    0.616245
                kinetic =    1.262150
    potential(screened) =   -0.645906
       potential(ionic) =   -1.116519
atom: Total number of Sankey-type orbitals:  5

atm_pop: Valence configuration (for local Pseudopot. screening):
 1s( 1.00)                                                            
Vna: chval, zval:    1.00000   1.00000

Vna:  Cut-off radius for the neutral-atom potential:   5.336316

atom: _________________________________________________________________________

<basis_specs>
===============================================================================
C                    Z=   6    Mass=  12.010        Charge= 0.17977+309
Lmxo=1 Lmxkb= 2    BasisType=split      Semic=F
L=0  Nsemic=0  Cnfigmx=2
          i=1  nzeta=2  polorb=0  (2s)
            splnorm:   0.15000    
               vcte:    0.0000    
               rinn:    0.0000    
               qcoe:    0.0000    
               qyuk:    0.0000    
               qwid:   0.10000E-01
                rcs:    0.0000      0.0000    
            lambdas:    1.0000      1.0000    
L=1  Nsemic=0  Cnfigmx=2
          i=1  nzeta=2  polorb=1  (2p)
            splnorm:   0.15000    
               vcte:    0.0000    
               rinn:    0.0000    
               qcoe:    0.0000    
               qyuk:    0.0000    
               qwid:   0.10000E-01
                rcs:    0.0000      0.0000    
            lambdas:    1.0000      1.0000    
-------------------------------------------------------------------------------
L=0  Nkbl=1  erefs: 0.17977+309
L=1  Nkbl=1  erefs: 0.17977+309
L=2  Nkbl=1  erefs: 0.17977+309
===============================================================================
</basis_specs>

atom: Called for C                     (Z =   6)

read_vps: Pseudopotential generation method:
read_vps: ATM3      Troullier-Martins                       
Valence charge for ps generation:    4.00000

xc_check: Exchange-correlation functional:
xc_check: Ceperley-Alder
V l=0 = -2*Zval/r beyond r=  1.4666
V l=1 = -2*Zval/r beyond r=  1.5038
V l=2 = -2*Zval/r beyond r=  1.5612
All V_l potentials equal beyond r=  1.5612
This should be close to max(r_c) in ps generation
All pots = -2*Zval/r beyond r=  1.5612

VLOCAL1: 99.0% of the norm of Vloc inside     17.809 Ry
VLOCAL1: 99.9% of the norm of Vloc inside     40.586 Ry
atom: Maximum radius for 4*pi*r*r*local-pseudopot. charge    1.88329
atom: Maximum radius for r*vlocal+2*Zval:    1.62091
GHOST: No ghost state for L =  0
GHOST: No ghost state for L =  1
GHOST: No ghost state for L =  2

KBgen: Kleinman-Bylander projectors: 
   l= 0   rc=  1.747182   el= -1.001947   Ekb=  5.181700   kbcos=  0.300603
   l= 1   rc=  1.747182   el= -0.398598   Ekb= -4.328763   kbcos= -0.367074
   l= 2   rc=  1.955272   el=  0.002326   Ekb= -1.016175   kbcos= -0.009979

KBgen: Total number of  Kleinman-Bylander projectors:    9
atom: -------------------------------------------------------------------------

atom: SANKEY-TYPE ORBITALS:
atom: Selected multiple-zeta basis: split     

SPLIT: Orbitals with angular momentum L= 0

SPLIT: Basis orbitals for state 2s

SPLIT: PAO cut-off radius determined from an
SPLIT: energy shift=  0.010000 Ry

   izeta = 1
                 lambda =    1.000000
                     rc =    4.518360
                 energy =   -0.992087
                kinetic =    0.856755
    potential(screened) =   -1.848843
       potential(ionic) =   -5.436865

   izeta = 2
                 rmatch =    3.475094
              splitnorm =    0.150000
                 energy =   -0.853594
                kinetic =    1.308346
    potential(screened) =   -2.161940
       potential(ionic) =   -6.002045

SPLIT: Orbitals with angular momentum L= 1

SPLIT: Basis orbitals for state 2p

SPLIT: PAO cut-off radius determined from an
SPLIT: energy shift=  0.010000 Ry

   izeta = 1
                 lambda =    1.000000
                     rc =    5.382558
                 energy =   -0.388318
                kinetic =    2.456485
    potential(screened) =   -2.844804
       potential(ionic) =   -6.312273

   izeta = 2
                 rmatch =    3.607901
              splitnorm =    0.150000
                 energy =   -0.250655
                kinetic =    3.636791
    potential(screened) =   -3.887446
       potential(ionic) =   -7.736789

POLgen: Perturbative polarization orbital with L=  2

POLgen: Polarization orbital for state 2p

   izeta = 1
                     rc =    5.382558
                 energy =    1.148490
                kinetic =    2.389078
    potential(screened) =   -1.240587
       potential(ionic) =   -4.090578
atom: Total number of Sankey-type orbitals: 13

atm_pop: Valence configuration (for local Pseudopot. screening):
 2s( 2.00)                                                            
 2p( 2.00)                                                            
Vna: chval, zval:    4.00000   4.00000

Vna:  Cut-off radius for the neutral-atom potential:   5.382558

atom: _________________________________________________________________________

prinput: Basis input ----------------------------------------------------------

PAO.BasisType split     

%block ChemicalSpeciesLabel
    1    1 H                       # Species index, atomic number, species label
    2    6 C                       # Species index, atomic number, species label
%endblock ChemicalSpeciesLabel

%block PAO.Basis                 # Define Basis set
H                     1                    # Species label, number of l-shells
 n=1   0   2 P   1                   # n, l, Nzeta, Polarization, NzetaPol
   5.336      4.002   
   1.000      1.000   
C                     2                    # Species label, number of l-shells
 n=2   0   2                         # n, l, Nzeta 
   4.518      3.475   
   1.000      1.000   
 n=2   1   2 P   1                   # n, l, Nzeta, Polarization, NzetaPol
   5.383      3.608   
   1.000      1.000   
%endblock PAO.Basis

prinput: ----------------------------------------------------------------------

Dumping basis to NetCDF file H.ion.nc
Dumping basis to NetCDF file C.ion.nc
coor:   Atomic-coordinates input format  =     Cartesian coordinates
coor:                                          (in Angstroms)
read_Zmatrix: Length units: Ang       
read_Zmatrix: Angle  units: deg       
read_Zmatrix: Force tolerances:
read_Zmatrix:    for lengths =     0.001556 Ry/Bohr
read_Zmatrix:    for angles  =     0.000421 Ry/rad

read_Zmatrix: Maximum displacements:
read_Zmatrix:    for lengths =     0.188973 Bohr
read_Zmatrix:    for angles  =     0.349066 rad
%block Zmatrix
molecule
      2 0 0 0 xm1 ym1 zm1 0 0 0
      2 1 0 0 CC 90.0 60.0 0 0 0
      2 2 1 0 CC CCC 90.0 0 0 0
      2 3 2 1 CC CCC 0.0 0 0 0
      2 4 3 2 CC CCC 0.0 0 0 0
      2 5 4 3 CC CCC 0.0 0 0 0
      1 1 2 3 CH CCH 180.0 0 0 0
      1 2 1 7 CH CCH 0.0 0 0 0
      1 3 2 8 CH CCH 0.0 0 0 0
      1 4 3 9 CH CCH 0.0 0 0 0
      1 5 4 10 CH CCH 0.0 0 0 0
      1 6 5 11 CH CCH 0.0 0 0 0
constants
        ym1 3.68
        xm1 3.68
        zm1 6.9032294
variables
        CC 1.417
        CH 1.112
        CCH 120.0
        CCC 120.0
%endblock Zmatrix
 nZmol:            1
 nSpecies:            2           2           2           2           2           2           1           1           1           1           1           1

zmatrix: Z-matrix coordinates: (Ang ; deg )
zmatrix: (Fractional coordinates have been converted to cartesian)
molecule    1 (    12 atoms)
      3.68000000      3.68000000      6.90322940
      1.41700000     90.00000000     60.00000000
      1.41700000    120.00000000     90.00000000
      1.41700000    120.00000000      0.00000000
      1.41700000    120.00000000      0.00000000
      1.41700000    120.00000000      0.00000000
      1.11200000    120.00000000    180.00000000
      1.11200000    120.00000000      0.00000000
      1.11200000    120.00000000      0.00000000
      1.11200000    120.00000000      0.00000000
      1.11200000    120.00000000      0.00000000
      1.11200000    120.00000000      0.00000000


Z-matrix Symbol Section -------
Variables
 CC           1.4170000000000000     
 CCC          120.00000000000017     
 CH           1.1120000000000001     
 CCH          120.00000000000017     
Constants
 xm1          3.6800000000000002     
 ym1          3.6800000000000002     
 zm1          6.9032293999999998     
------------ End of Z-matrix Information


siesta: Atomic coordinates (Bohr) and species
siesta:      6.95419   6.95419  13.04522  2        1
siesta:      8.29307   9.27319  13.04522  2        2
siesta:     10.97081   9.27319  13.04522  2        3
siesta:     12.30968   6.95419  13.04522  2        4
siesta:     10.97081   4.63520  13.04522  2        5
siesta:      8.29307   4.63520  13.04522  2        6
siesta:      4.85282   6.95419  13.04522  1        7
siesta:      7.24238  11.09303  13.04522  1        8
siesta:     12.02150  11.09303  13.04522  1        9
siesta:     14.41106   6.95419  13.04522  1       10
siesta:     12.02150   2.81536  13.04522  1       11
siesta:      7.24238   2.81536  13.04522  1       12

siesta: Automatic unit cell vectors (Ang):
siesta:   11.776283    0.000000    0.000000
siesta:    0.000000   11.030875    0.000000
siesta:    0.000000    0.000000    6.266317

siesta: System type = molecule  

initatomlists: Number of atoms, orbitals, and projectors:     12   108   108

siesta: ******************** Simulation parameters ****************************
siesta:
siesta: The following are some of the parameters of the simulation.
siesta: A complete list of the parameters used, including default values,
siesta: can be found in file out.fdf
siesta:
redata: Spin configuration                          = none
redata: Number of spin components                   = 1
redata: Time-Reversal Symmetry                      = T
redata: Spin spiral                                 = F
redata: Long output                                 =   F
redata: Number of Atomic Species                    =        2
redata: Charge density info will appear in .RHO file
redata: Write Mulliken Pop.                         = NO
redata: Matel table size (NRTAB)                    =     1024
redata: Mesh Cutoff                                 =   120.0000 Ry
redata: Net charge of the system                    =     0.0000 |e|
redata: Min. number of SCF Iter                     =        0
redata: Max. number of SCF Iter                     =     1000
redata: SCF convergence failure will abort job
redata: SCF mix quantity                            = Hamiltonian
redata: Mix DM or H after convergence               =   F
redata: Recompute H after scf cycle                 =   F
redata: Mix DM in first SCF step                    =   T
redata: Write Pulay info on disk                    =   F
redata: New DM Occupancy tolerance                  = 0.000000000001
redata: No kicks to SCF
redata: DM Mixing Weight for Kicks                  =     0.5000
redata: Require Harris convergence for SCF          =   F
redata: Harris energy tolerance for SCF             =     0.000100 eV
redata: Require DM convergence for SCF              =   T
redata: DM tolerance for SCF                        =     0.000100
redata: Require EDM convergence for SCF             =   F
redata: EDM tolerance for SCF                       =     0.001000 eV
redata: Require H convergence for SCF               =   T
redata: Hamiltonian tolerance for SCF               =     0.001000 eV
redata: Require (free) Energy convergence for SCF   =   F
redata: (free) Energy tolerance for SCF             =     0.000100 eV
redata: Using Saved Data (generic)                  =   F
redata: Use continuation files for DM               =   F
redata: Neglect nonoverlap interactions             =   F
redata: Method of Calculation                       = Diagonalization
redata: Electronic Temperature                      =   299.9869 K
redata: Fix the spin of the system                  =   F
redata: Dynamics option                             = FIRE coord. optimization
redata: Variable cell                               =   F
redata: Use continuation files for CG               =   F
redata: Max atomic displ per move                   =     0.1058 Ang
redata: Maximum number of optimization moves        =        4
redata: Force tolerance                             =     0.0400 eV/Ang
mix.SCF: Pulay mixing                            = Pulay
mix.SCF:    Variant                              = stable
mix.SCF:    History steps                        = 5
mix.SCF:    Linear mixing weight                 =     0.300000
mix.SCF:    Mixing weight                        =     0.300000
mix.SCF:    SVD condition                        = 0.1000E-07
redata: Save all siesta data in one NC              =   F
redata: ***********************************************************************

%block SCF.Mixers
  Pulay
%endblock SCF.Mixers

%block SCF.Mixer.Pulay
  # Mixing method
  method pulay
  variant stable

  # Mixing options
  weight 0.3000
  weight.linear 0.3000
  history 5
%endblock SCF.Mixer.Pulay

DM_history_depth set to one: no extrapolation allowed by default for geometry relaxation
Size of DM history Fstack: 1
Total number of electrons:    30.000000
Total ionic charge:    30.000000

* ProcessorY, Blocksize:    2  14


* Orbital distribution balance (max,min):    14    10

 Kpoints in:            1 . Kpoints trimmed:            1

siesta: k-grid: Number of k-points =     1
siesta: k-grid: Cutoff (effective) =     3.133 Ang
siesta: k-grid: Supercell and displacements
siesta: k-grid:    1   0   0      0.000
siesta: k-grid:    0   1   0      0.000
siesta: k-grid:    0   0   1      0.000

diag: Algorithm                                     = D&C
diag: Parallel over k                               =   F
diag: Use parallel 2D distribution                  =   T
diag: Parallel block-size                           = 14
diag: Parallel distribution                         =     2 x     4
diag: Used triangular part                          = Lower
diag: Absolute tolerance                            =  0.100E-15
diag: Orthogonalization factor                      =  0.100E-05
diag: Memory factor                                 =  1.0000


ts: **************************************************************
ts: Save H and S matrices                           =    F
ts: Save DM and EDM matrices                        =    F
ts: Only save the overlap matrix S                  =    F
ts: **************************************************************

************************ Begin: TS CHECKS AND WARNINGS ************************
************************ End: TS CHECKS AND WARNINGS **************************


                     ====================================
                        Begin FIRE opt. move =      0

zmatrix: Z-matrix coordinates: (Ang ; deg )
zmatrix: (Fractional coordinates have been converted to cartesian)
molecule    1 (    12 atoms)
      3.68000000      3.68000000      6.90322940
      1.41700000     90.00000000     60.00000000
      1.41700000    120.00000000     90.00000000
      1.41700000    120.00000000      0.00000000
      1.41700000    120.00000000      0.00000000
      1.41700000    120.00000000      0.00000000
      1.11200000    120.00000000    180.00000000
      1.11200000    120.00000000      0.00000000
      1.11200000    120.00000000      0.00000000
      1.11200000    120.00000000      0.00000000
      1.11200000    120.00000000      0.00000000
      1.11200000    120.00000000      0.00000000


Z-matrix Symbol Section -------
Variables
 CC           1.4170000000000000     
 CCC          120.00000000000017     
 CH           1.1120000000000001     
 CCH          120.00000000000017     
Constants
 xm1          3.6800000000000002     
 ym1          3.6800000000000002     
 zm1          6.9032293999999998     
------------ End of Z-matrix Information

                     ====================================

outcell: Unit cell vectors (Ang):
       11.776283    0.000000    0.000000
        0.000000   11.030875    0.000000
        0.000000    0.000000    6.266317

outcell: Cell vector modules (Ang)   :   11.776283   11.030875    6.266317
outcell: Cell angles (23,13,12) (deg):     90.0000     90.0000     90.0000
outcell: Cell volume (Ang**3)        :    814.0116
<dSpData1D:S at geom step 0
  <sparsity:sparsity for geom step 0
    nrows_g=108 nrows=14 sparsity=.1296 nnzs=1512, refcount: 7>
  <dData1D:(new from dSpData1D) n=1512, refcount: 1>
refcount: 1>
new_DM -- step:     1
Initializing Density Matrix...
DM filled with atomic data:
<dSpData2D:DM initialized from atoms
  <sparsity:sparsity for geom step 0
    nrows_g=108 nrows=14 sparsity=.1296 nnzs=1512, refcount: 8>
  <dData2D:DM n=1512 m=1, refcount: 1>
refcount: 1>
No. of atoms with KB's overlaping orbs in proc 0. Max # of overlaps:      11     101
New grid distribution:   1
           1       1:   40    1:   20    1:    6
           2       1:   40    1:   20    7:   12
           3       1:   40    1:   20   13:   18
           4       1:   40    1:   20   19:   24
           5       1:   40   21:   40    1:    6
           6       1:   40   21:   40    7:   12
           7       1:   40   21:   40   13:   18
           8       1:   40   21:   40   19:   24

InitMesh: MESH =    80 x    80 x    48 =      307200
InitMesh: (bp) =    40 x    40 x    24 =       38400
InitMesh: Mesh cutoff (required, used) =   120.000   127.546 Ry
ExtMesh (bp) on 0 =    80 x    64 x    50 =      256000
New grid distribution:   2
           1      19:   40   15:   40    1:    6
           2       1:   18   15:   40    7:   24
           3      19:   40    1:   14    7:   24
           4      19:   40    1:   14    1:    6
           5       1:   18    1:   14    7:   24
           6      19:   40   15:   40    7:   24
           7       1:   18   15:   40    1:    6
           8       1:   18    1:   14    1:    6
New grid distribution:   3
           1      19:   40    1:   15    1:   10
           2       1:   18    1:   15   11:   24
           3       1:   18   16:   40   10:   24
           4      19:   40    1:   15   11:   24
           5      19:   40   16:   40    1:    9
           6       1:   18   16:   40    1:    9
           7      19:   40   16:   40   10:   24
           8       1:   18    1:   15    1:   10
Setting up quadratic distribution...
ExtMesh (bp) on 0 =    62 x    70 x    50 =      217000
PhiOnMesh: Number of (b)points on node 0 =                 3432
PhiOnMesh: nlist on node 0 =                41836

stepf: Fermi-Dirac step function

siesta: Program's energy decomposition (eV):
siesta: Ebs     =      -283.755844
siesta: Eions   =      1613.953835
siesta: Ena     =       340.735980
siesta: Ekin    =       771.609638
siesta: Enl     =      -127.549540
siesta: Eso     =         0.000000
siesta: Edftu   =         0.000000
siesta: DEna    =       -59.245047
siesta: DUscf   =         7.993446
siesta: DUext   =         0.000000
siesta: Exc     =      -341.223675
siesta: eta*DQ  =         0.000000
siesta: Emadel  =         0.000000
siesta: Emeta   =         0.000000
siesta: Emolmec =         0.000000
siesta: Ekinion =         0.000000
siesta: Eharris =     -1027.961847
siesta: Etot    =     -1021.633033
siesta: FreeEng =     -1021.633033

        iscf     Eharris(eV)        E_KS(eV)     FreeEng(eV)     dDmax    Ef(eV) dHmax(eV)
   scf:    1    -1027.961847    -1021.633033    -1021.633033  1.955312 -7.720769  6.828679
timer: Routine,Calls,Time,% = IterSCF        1       0.110   7.58
   scf:    2    -1024.813290    -1023.460408    -1023.460408  0.092906 -5.868357  2.815992
   scf:    3    -1023.979492    -1023.803010    -1023.803010  0.070421 -4.659040  0.588262
   scf:    4    -1023.845882    -1023.829712    -1023.829712  0.017424 -4.545587  0.127412
   scf:    5    -1023.826502    -1023.829232    -1023.829232  0.006755 -4.391226  0.165522
   scf:    6    -1023.831419    -1023.830948    -1023.830948  0.003283 -4.471362  0.022239
   scf:    7    -1023.830974    -1023.830975    -1023.830975  0.000585 -4.457325  0.007860
   scf:    8    -1023.830980    -1023.830979    -1023.830979  0.000167 -4.460863  0.000155
   scf:    9    -1023.830979    -1023.830979    -1023.830979  0.000004 -4.460889  0.000105

SCF Convergence by DM+H criterion
max |DM_out - DM_in|         :     0.0000040982
max |H_out - H_in|      (eV) :     0.0001053297
SCF cycle converged after 9 iterations

Using DM_out to compute the final energy and forces
No. of atoms with KB's overlaping orbs in proc 0. Max # of overlaps:      11     101

siesta: E_KS(eV) =            -1023.8310

siesta: E_KS - E_eggbox =     -1023.8310

zmatrix: Atomic forces (eV/Ang ; eV/deg )
zmatrix: (No information if symbols are used)
molecule    1 (    12 atoms)
     1    0.000000    0.000000    0.000000
     2    0.000000    0.000000    0.000000
     3    0.000000    0.000000    0.000000
     4    0.000000    0.000000    0.000000
     5    0.000000    0.000000    0.000000
     6    0.000000    0.000000    0.000000
     7    0.000000    0.000000    0.000000
     8    0.000000    0.000000    0.000000
     9    0.000000    0.000000    0.000000
    10    0.000000    0.000000    0.000000
    11    0.000000    0.000000    0.000000
    12    0.000000    0.000000    0.000000


Variable forces (eV/Ang ; eV/deg )
 CC          -5.4382208725719732     
 CCC        -0.11716690471717035     
 CH         -0.83910869965829449     
 CCH          5.4844654716336659E-005

siesta: Atomic forces (eV/Ang):
----------------------------------------
   Tot   -0.003400   -0.005312    0.003052
----------------------------------------
   Max    0.772733
   Res    0.317879    sqrt( Sum f_i^2 / 3N )
----------------------------------------
   Max    0.772733    constrained

Stress tensor Voigt[x,y,z,yz,xz,xy] (kbar):        8.50        8.48       -0.06        0.00        0.00        0.01
(Free)E + p*V (eV/cell)    -1026.6969
Target enthalpy (eV/cell)    -1023.8310
Fire_optim: No of elements:      4
 Power > 0
FIRE: step, dt, npos, alpha, magv, magf, long
FIREdat:     1    0.3000   1    0.1000    0.161346    0.537820    0
FIRE: nvar, x, v, f
           1   2.6682249741273578       -6.3453411192690296E-002 -0.21151137064230099     
           2   2.0721918794110334      -0.14802148654776584      -0.49340495515921945     
           3   2.0999076742515590       -9.7907588901588426E-003  -3.2635862967196144E-002
           4   2.0944054954995197        6.9287375474393672E-005   2.3095791824797891E-004

                     ====================================
                        Begin FIRE opt. move =      1

zmatrix: Z-matrix coordinates: (Ang ; deg )
zmatrix: (Fractional coordinates have been converted to cartesian)
molecule    1 (    12 atoms)
      3.68000000      3.68000000      6.90322940
      1.41196329     90.00000000     60.00000000
      1.41196329    118.72784903     90.00000000
      1.41196329    118.72784903      0.00000000
      1.41196329    118.72784903      0.00000000
      1.41196329    118.72784903      0.00000000
      1.11122284    120.00059548    180.00000000
      1.11122284    120.00059548      0.00000000
      1.11122284    120.00059548      0.00000000
      1.11122284    120.00059548      0.00000000
      1.11122284    120.00059548      0.00000000
      1.11122284    120.00059548      0.00000000


Z-matrix Symbol Section -------
Variables
 CC           1.4119632871337928     
 CCC          118.72784903153425     
 CH           1.1112228433374172     
 CCH          120.00059548112841     
Constants
 xm1          3.6800000000000002     
 ym1          3.6800000000000002     
 zm1          6.9032293999999998     
------------ End of Z-matrix Information

                     ====================================

outcell: Unit cell vectors (Ang):
       11.776283    0.000000    0.000000
        0.000000   11.030875    0.000000
        0.000000    0.000000    6.266317

outcell: Cell vector modules (Ang)   :   11.776283   11.030875    6.266317
outcell: Cell angles (23,13,12) (deg):     90.0000     90.0000     90.0000
outcell: Cell volume (Ang**3)        :    814.0116
<dSpData1D:S at geom step 1
  <sparsity:sparsity for geom step 1
    nrows_g=108 nrows=14 sparsity=.1296 nnzs=1512, refcount: 7>
  <dData1D:(new from dSpData1D) n=1512, refcount: 1>
refcount: 1>
new_DM -- step:     2
Re-using DM from previous geometries...
Number of DMs in history: 1
 DM extrapolation coefficients: 
1   1.00000
New DM after history re-use:
<dSpData2D:SpM extrapolated using coords
  <sparsity:sparsity for geom step 1
    nrows_g=108 nrows=14 sparsity=.1296 nnzs=1512, refcount: 9>
  <dData2D:(temp array for extrapolation) n=1512 m=1, refcount: 1>
refcount: 1>
Note: For starting DM, Qtot, Tr[D*S] =         30.00000000         30.14292898
No. of atoms with KB's overlaping orbs in proc 0. Max # of overlaps:      11     101
New grid distribution:   1
           1       1:   40    1:   20    1:    6
           2       1:   40    1:   20    7:   12
           3       1:   40    1:   20   13:   18
           4       1:   40    1:   20   19:   24
           5       1:   40   21:   40    1:    6
           6       1:   40   21:   40    7:   12
           7       1:   40   21:   40   13:   18
           8       1:   40   21:   40   19:   24

InitMesh: MESH =    80 x    80 x    48 =      307200
InitMesh: (bp) =    40 x    40 x    24 =       38400
InitMesh: Mesh cutoff (required, used) =   120.000   127.546 Ry
ExtMesh (bp) on 0 =    80 x    64 x    50 =      256000
New grid distribution:   2
           1      18:   40   15:   40    1:    6
           2       1:   17   15:   40    7:   24
           3      18:   40    1:   14    7:   24
           4      18:   40    1:   14    1:    6
           5       1:   17    1:   14    7:   24
           6      18:   40   15:   40    7:   24
           7       1:   17   15:   40    1:    6
           8       1:   17    1:   14    1:    6
New grid distribution:   3
           1      18:   40    1:   15    1:   10
           2       1:   17    1:   15   11:   24
           3       1:   18   16:   40   10:   24
           4      18:   40    1:   15   11:   24
           5      19:   40   16:   40    1:    9
           6       1:   18   16:   40    1:    9
           7      19:   40   16:   40   10:   24
           8       1:   17    1:   15    1:   10
Setting up quadratic distribution...
ExtMesh (bp) on 0 =    63 x    70 x    50 =      220500
PhiOnMesh: Number of (b)points on node 0 =                 3588
PhiOnMesh: nlist on node 0 =                45936

        iscf     Eharris(eV)        E_KS(eV)     FreeEng(eV)     dDmax    Ef(eV) dHmax(eV)
   scf:    1    -1021.519297    -1022.994374    -1022.994374  0.095615 -4.374785  1.979925
   scf:    2    -1018.825132    -1021.859415    -1021.859415  0.101537 -5.083660  4.939965
   scf:    3    -1023.595989    -1023.217571    -1023.217571  0.071063 -4.489606  0.062051
   scf:    4    -1023.219002    -1023.218341    -1023.218341  0.002768 -4.487963  0.034936
   scf:    5    -1023.218690    -1023.218540    -1023.218540  0.002327 -4.483454  0.006713
   scf:    6    -1023.218552    -1023.218546    -1023.218546  0.000238 -4.482728  0.003118
   scf:    7    -1023.218550    -1023.218548    -1023.218548  0.000180 -4.482637  0.000916
   scf:    8    -1023.218549    -1023.218549    -1023.218549  0.000063 -4.482704  0.000230

SCF Convergence by DM+H criterion
max |DM_out - DM_in|         :     0.0000631810
max |H_out - H_in|      (eV) :     0.0002295112
SCF cycle converged after 8 iterations

Using DM_out to compute the final energy and forces
No. of atoms with KB's overlaping orbs in proc 0. Max # of overlaps:      11     101

siesta: E_KS(eV) =            -1023.2185

zmatrix: Atomic forces (eV/Ang ; eV/deg )
zmatrix: (No information if symbols are used)
molecule    1 (    12 atoms)
     1    0.000000    0.000000    0.000000
     2    0.000000    0.000000    0.000000
     3    0.000000    0.000000    0.000000
     4    0.000000    0.000000    0.000000
     5    0.000000    0.000000    0.000000
     6    0.000000    0.000000    0.000000
     7    0.000000    0.000000    0.000000
     8    0.000000    0.000000    0.000000
     9    0.000000    0.000000    0.000000
    10    0.000000    0.000000    0.000000
    11    0.000000    0.000000    0.000000
    12    0.000000    0.000000    0.000000


Variable forces (eV/Ang ; eV/deg )
 CC           6.2451205308335647     
 CCC          1.2687848281605567     
 CH         -0.56948769381617892     
 CCH         -9.0549580275809029E-003

siesta: Atomic forces (eV/Ang):
----------------------------------------
   Tot    0.011725   -0.004301    0.003451
----------------------------------------
   Max    8.521552
   Res    2.263498    sqrt( Sum f_i^2 / 3N )
----------------------------------------
   Max    8.521552    constrained

Stress tensor Voigt[x,y,z,yz,xz,xy] (kbar):        0.11      -16.28       -0.05       -0.00        0.00       11.33
(Free)E + p*V (eV/cell)    -1020.4730
Target enthalpy (eV/cell)    -1023.2185
 Power < 0
FIRE: step, dt, npos, alpha, magv, magf, long
FIREdat:     2    0.1500   0    0.1000    1.604615    5.348717    0
FIRE: nvar, x, v, f
           1   2.6791552271533852        7.2868353506848102E-002  0.24289451168949366     
           2   2.3126276280897149        1.6029049911912097        5.3430166373040322     
           3   2.0989109529620520       -6.6448085967138444E-003  -2.2149361989046150E-002
           4   2.0926895736471347       -1.1439479015901075E-002  -3.8131596719670251E-002

                     ====================================
                        Begin FIRE opt. move =      2

zmatrix: Z-matrix coordinates: (Ang ; deg )
zmatrix: (Fractional coordinates have been converted to cartesian)
molecule    1 (    12 atoms)
      3.68000000      3.68000000      6.90322940
      1.41774733     90.00000000     60.00000000
      1.41774733    132.50380267     90.00000000
      1.41774733    132.50380267      0.00000000
      1.41774733    132.50380267      0.00000000
      1.41774733    132.50380267      0.00000000
      1.11069540    119.90228040    180.00000000
      1.11069540    119.90228040      0.00000000
      1.11069540    119.90228040      0.00000000
      1.11069540    119.90228040      0.00000000
      1.11069540    119.90228040      0.00000000
      1.11069540    119.90228040      0.00000000


Z-matrix Symbol Section -------
Variables
 CC           1.4177473256393469     
 CCC          132.50380267489086     
 CH           1.1106954013555999     
 CCH          119.90228040101248     
Constants
 xm1          3.6800000000000002     
 ym1          3.6800000000000002     
 zm1          6.9032293999999998     
------------ End of Z-matrix Information

                     ====================================

outcell: Unit cell vectors (Ang):
       11.776283    0.000000    0.000000
        0.000000   11.030875    0.000000
        0.000000    0.000000    6.266317

outcell: Cell vector modules (Ang)   :   11.776283   11.030875    6.266317
outcell: Cell angles (23,13,12) (deg):     90.0000     90.0000     90.0000
outcell: Cell volume (Ang**3)        :    814.0116
Gamma-point calculation with multiply-connected orbital pairs
Folding of H and S implicitly performed
<dSpData1D:S at geom step 2
  <sparsity:sparsity for geom step 2
    nrows_g=108 nrows=14 sparsity=.1289 nnzs=1504, refcount: 7>
  <dData1D:(new from dSpData1D) n=1504, refcount: 1>
refcount: 1>
new_DM -- step:     3
Re-using DM from previous geometries...
Number of DMs in history: 1
 DM extrapolation coefficients: 
1   1.00000
New DM after history re-use:
<dSpData2D:SpM extrapolated using coords
  <sparsity:sparsity for geom step 2
    nrows_g=108 nrows=14 sparsity=.1289 nnzs=1504, refcount: 9>
  <dData2D:(temp array for extrapolation) n=1504 m=1, refcount: 1>
refcount: 1>
Note: For starting DM, Qtot, Tr[D*S] =         30.00000000         26.88693026
No. of atoms with KB's overlaping orbs in proc 0. Max # of overlaps:       9      97
New grid distribution:   1
           1       1:   40    1:   20    1:    6
           2       1:   40    1:   20    7:   12
           3       1:   40    1:   20   13:   18
           4       1:   40    1:   20   19:   24
           5       1:   40   21:   40    1:    6
           6       1:   40   21:   40    7:   12
           7       1:   40   21:   40   13:   18
           8       1:   40   21:   40   19:   24

InitMesh: MESH =    80 x    80 x    48 =      307200
InitMesh: (bp) =    40 x    40 x    24 =       38400
InitMesh: Mesh cutoff (required, used) =   120.000   127.546 Ry
ExtMesh (bp) on 0 =    80 x    64 x    50 =      256000
New grid distribution:   2
           1       1:   19   16:   40    1:    7
           2       1:   21    1:   15    7:   24
           3       1:   19   16:   40    8:   24
           4      22:   40    1:   15    1:    7
           5      22:   40    1:   15    8:   24
           6      20:   40   16:   40    7:   24
           7      20:   40   16:   40    1:    6
           8       1:   21    1:   15    1:    6
New grid distribution:   3
           1      21:   40   17:   40    1:    9
           2      21:   40    1:   16    1:   10
           3      21:   40   17:   40   10:   24
           4       1:   20    1:   16   10:   24
           5      21:   40    1:   16   11:   24
           6       1:   20   17:   40    1:    9
           7       1:   20   17:   40   10:   24
           8       1:   20    1:   16    1:    9
Setting up quadratic distribution...
ExtMesh (bp) on 0 =    59 x    69 x    51 =      207621
PhiOnMesh: Number of (b)points on node 0 =                 3325
PhiOnMesh: nlist on node 0 =                49673

        iscf     Eharris(eV)        E_KS(eV)     FreeEng(eV)     dDmax    Ef(eV) dHmax(eV)
   scf:    1     -577.759664     -877.681187     -877.681187  0.890156 -4.031690 50.671471
   scf:    2     3179.895646      284.950701      284.950700  2.790822 -9.771406142.679245
   scf:    3    -1346.933850     -995.298383     -995.298383  2.717473 -3.620787 22.396711
   scf:    4    -1018.953925    -1014.243739    -1014.243739  0.662529 -4.064453  4.826866
   scf:    5    -1011.843872    -1013.793248    -1013.793248  0.226162 -4.381721  7.204955
   scf:    6    -1012.192433    -1015.200891    -1015.200891  0.335557 -4.714891  3.847756
   scf:    7    -1010.277987    -1014.636980    -1014.636980  0.343431 -4.790028  4.696799
   scf:    8    -1016.340542    -1015.985092    -1015.985092  0.153470 -4.895092  0.624020
   scf:    9    -1016.012540    -1016.004959    -1016.004959  0.018147 -4.929295  0.108913
   scf:   10    -1016.005981    -1016.005736    -1016.005736  0.003408 -4.929942  0.017946
   scf:   11    -1016.005846    -1016.005789    -1016.005790  0.001160 -4.933142  0.007492
   scf:   12    -1016.005803    -1016.005799    -1016.005800  0.000554 -4.934930  0.006251
   scf:   13    -1016.005803    -1016.005802    -1016.005802  0.000179 -4.934940  0.002153
   scf:   14    -1016.005802    -1016.005802    -1016.005802  0.000068 -4.935093  0.000831

SCF Convergence by DM+H criterion
max |DM_out - DM_in|         :     0.0000675129
max |H_out - H_in|      (eV) :     0.0008305946
SCF cycle converged after 14 iterations

Using DM_out to compute the final energy and forces
No. of atoms with KB's overlaping orbs in proc 0. Max # of overlaps:       9      97

siesta: E_KS(eV) =            -1016.0058

zmatrix: Atomic forces (eV/Ang ; eV/deg )
zmatrix: (No information if symbols are used)
molecule    1 (    12 atoms)
     1    0.000000    0.000000    0.000000
     2    0.000000    0.000000    0.000000
     3    0.000000    0.000000    0.000000
     4    0.000000    0.000000    0.000000
     5    0.000000    0.000000    0.000000
     6    0.000000    0.000000    0.000000
     7    0.000000    0.000000    0.000000
     8    0.000000    0.000000    0.000000
     9    0.000000    0.000000    0.000000
    10    0.000000    0.000000    0.000000
    11    0.000000    0.000000    0.000000
    12    0.000000    0.000000    0.000000


Variable forces (eV/Ang ; eV/deg )
 CC          -12.266253522399005     
 CCC        -0.35115555580561070     
 CH          0.75551528617673258     
 CCH         -1.3585464475637027E-002

siesta: Atomic forces (eV/Ang):
----------------------------------------
   Tot   -0.024686    0.005505    0.001587
----------------------------------------
   Max    4.068910
   Res    1.547396    sqrt( Sum f_i^2 / 3N )
----------------------------------------
   Max    4.068910    constrained

Stress tensor Voigt[x,y,z,yz,xz,xy] (kbar):       16.78       15.68       -0.09        0.00       -0.01       -0.41
(Free)E + p*V (eV/cell)    -1021.4868
Target enthalpy (eV/cell)    -1016.0058
 Power < 0
FIRE: step, dt, npos, alpha, magv, magf, long
FIREdat:     3    0.0750   0    0.1000    0.233272    1.555145    0
FIRE: nvar, x, v, f
           1   2.6737881067743920       -7.1561605053240579E-002 -0.47707736702160386     
           2   2.2959915627993528      -0.22181420387149725       -1.4787613591433151     
           3   2.0992415299782268        4.4076935489990822E-003   2.9384623659993885E-002
           4   2.0920459595271814       -8.5815215993794245E-003  -5.7210143995862828E-002

                     ====================================
                        Begin FIRE opt. move =      3

zmatrix: Z-matrix coordinates: (Ang ; deg )
zmatrix: (Fractional coordinates have been converted to cartesian)
molecule    1 (    12 atoms)
      3.68000000      3.68000000      6.90322940
      1.41490717     90.00000000     60.00000000
      1.41490717    131.55062635     90.00000000
      1.41490717    131.55062635      0.00000000
      1.41490717    131.55062635      0.00000000
      1.41490717    131.55062635      0.00000000
      1.11087034    119.86540403    180.00000000
      1.11087034    119.86540403      0.00000000
      1.11087034    119.86540403      0.00000000
      1.11087034    119.86540403      0.00000000
      1.11087034    119.86540403      0.00000000
      1.11087034    119.86540403      0.00000000


Z-matrix Symbol Section -------
Variables
 CC           1.4149071689785524     
 CCC          131.55062634604903     
 CH           1.1108703351092881     
 CCH          119.86540402830413     
Constants
 xm1          3.6800000000000002     
 ym1          3.6800000000000002     
 zm1          6.9032293999999998     
------------ End of Z-matrix Information

                     ====================================

outcell: Unit cell vectors (Ang):
       11.776283    0.000000    0.000000
        0.000000   11.030875    0.000000
        0.000000    0.000000    6.266317

outcell: Cell vector modules (Ang)   :   11.776283   11.030875    6.266317
outcell: Cell angles (23,13,12) (deg):     90.0000     90.0000     90.0000
outcell: Cell volume (Ang**3)        :    814.0116
Gamma-point calculation with multiply-connected orbital pairs
Folding of H and S implicitly performed
<dSpData1D:S at geom step 3
  <sparsity:sparsity for geom step 3
    nrows_g=108 nrows=14 sparsity=.1293 nnzs=1508, refcount: 7>
  <dData1D:(new from dSpData1D) n=1508, refcount: 1>
refcount: 1>
new_DM -- step:     4
Re-using DM from previous geometries...
Number of DMs in history: 1
 DM extrapolation coefficients: 
1   1.00000
New DM after history re-use:
<dSpData2D:SpM extrapolated using coords
  <sparsity:sparsity for geom step 3
    nrows_g=108 nrows=14 sparsity=.1293 nnzs=1508, refcount: 9>
  <dData2D:(temp array for extrapolation) n=1508 m=1, refcount: 1>
refcount: 1>
Note: For starting DM, Qtot, Tr[D*S] =         30.00000000         30.05465203
No. of atoms with KB's overlaping orbs in proc 0. Max # of overlaps:       9      97
New grid distribution:   1
           1       1:   40    1:   20    1:    6
           2       1:   40    1:   20    7:   12
           3       1:   40    1:   20   13:   18
           4       1:   40    1:   20   19:   24
           5       1:   40   21:   40    1:    6
           6       1:   40   21:   40    7:   12
           7       1:   40   21:   40   13:   18
           8       1:   40   21:   40   19:   24

InitMesh: MESH =    80 x    80 x    48 =      307200
InitMesh: (bp) =    40 x    40 x    24 =       38400
InitMesh: Mesh cutoff (required, used) =   120.000   127.546 Ry
ExtMesh (bp) on 0 =    80 x    64 x    50 =      256000
New grid distribution:   2
           1       1:   19   16:   40    1:    7
           2       1:   21    1:   15    7:   24
           3       1:   19   16:   40    8:   24
           4      22:   40    1:   15    1:    7
           5      22:   40    1:   15    8:   24
           6      20:   40   16:   40    7:   24
           7      20:   40   16:   40    1:    6
           8       1:   21    1:   15    1:    6
New grid distribution:   3
           1      21:   40   17:   40    1:    9
           2      21:   40    1:   16    1:   10
           3      21:   40   17:   40   10:   24
           4       1:   20    1:   16   10:   24
           5      21:   40    1:   16   11:   24
           6       1:   20   17:   40    1:    9
           7       1:   20   17:   40   10:   24
           8       1:   20    1:   16    1:    9
Setting up quadratic distribution...
ExtMesh (bp) on 0 =    59 x    69 x    51 =      207621
PhiOnMesh: Number of (b)points on node 0 =                 3325
PhiOnMesh: nlist on node 0 =                49902

        iscf     Eharris(eV)        E_KS(eV)     FreeEng(eV)     dDmax    Ef(eV) dHmax(eV)
   scf:    1    -1016.412528    -1016.308549    -1016.308549  0.048343 -4.760923  1.189204
   scf:    2    -1004.499678    -1012.564532    -1012.564533  0.274509 -5.047316  8.901417
   scf:    3    -1015.976791    -1016.342473    -1016.342473  0.281070 -4.847492  0.893994
   scf:    4    -1016.393550    -1016.391764    -1016.391764  0.028555 -4.838490  0.047158
   scf:    5    -1016.392101    -1016.392085    -1016.392085  0.002445 -4.843578  0.035880
   scf:    6    -1016.392042    -1016.392119    -1016.392119  0.001395 -4.842170  0.018572
   scf:    7    -1016.392136    -1016.392138    -1016.392138  0.000604 -4.842632  0.003636
   scf:    8    -1016.392139    -1016.392139    -1016.392139  0.000166 -4.842862  0.001803
   scf:    9    -1016.392139    -1016.392139    -1016.392139  0.000046 -4.842988  0.000662

SCF Convergence by DM+H criterion
max |DM_out - DM_in|         :     0.0000461116
max |H_out - H_in|      (eV) :     0.0006620222
SCF cycle converged after 9 iterations

Using DM_out to compute the final energy and forces
No. of atoms with KB's overlaping orbs in proc 0. Max # of overlaps:       9      97

siesta: E_KS(eV) =            -1016.3921

zmatrix: Atomic forces (eV/Ang ; eV/deg )
zmatrix: (No information if symbols are used)
molecule    1 (    12 atoms)
     1    0.000000    0.000000    0.000000
     2    0.000000    0.000000    0.000000
     3    0.000000    0.000000    0.000000
     4    0.000000    0.000000    0.000000
     5    0.000000    0.000000    0.000000
     6    0.000000    0.000000    0.000000
     7    0.000000    0.000000    0.000000
     8    0.000000    0.000000    0.000000
     9    0.000000    0.000000    0.000000
    10    0.000000    0.000000    0.000000
    11    0.000000    0.000000    0.000000
    12    0.000000    0.000000    0.000000


Variable forces (eV/Ang ; eV/deg )
 CC          -12.108388444376228     
 CCC        -0.39167065503087023     
 CH          0.61750853708775044     
 CCH         -8.8863752532950587E-003

siesta: Atomic forces (eV/Ang):
----------------------------------------
   Tot   -0.011106   -0.006537    0.000206
----------------------------------------
   Max    3.966470
   Res    1.500999    sqrt( Sum f_i^2 / 3N )
----------------------------------------
   Max    3.966470    constrained

Stress tensor Voigt[x,y,z,yz,xz,xy] (kbar):       16.93       15.44       -0.09        0.00       -0.00       -1.86
(Free)E + p*V (eV/cell)    -1021.8602
Target enthalpy (eV/cell)    -1016.3921
 Power > 0
FIRE: step, dt, npos, alpha, magv, magf, long
FIREdat:     4    0.0750   1    0.1000    0.361900    1.715867    0
FIRE: nvar, x, v, f
           1   2.6671530081787909      -0.10612813541436091      -0.47093744372471141     
           2   2.2746984934398795      -0.34575917908879966       -1.6493756701107789     
           3   2.0996310856231410        6.0947150160288038E-003   2.4017060013412257E-002
           4   2.0913233023622295       -1.1038741599886489E-002  -3.7421672902975496E-002

                     ====================================
                        Begin FIRE opt. move =      4

zmatrix: Z-matrix coordinates: (Ang ; deg )
zmatrix: (Fractional coordinates have been converted to cartesian)
molecule    1 (    12 atoms)
      3.68000000      3.68000000      6.90322940
      1.41139603     90.00000000     60.00000000
      1.41139603    130.33062334     90.00000000
      1.41139603    130.33062334      0.00000000
      1.41139603    130.33062334      0.00000000
      1.41139603    130.33062334      0.00000000
      1.11107648    119.82399882    180.00000000
      1.11107648    119.82399882      0.00000000
      1.11107648    119.82399882      0.00000000
      1.11107648    119.82399882      0.00000000
      1.11107648    119.82399882      0.00000000
      1.11107648    119.82399882      0.00000000


Z-matrix Symbol Section -------
Variables
 CC           1.4113960274090280     
 CCC          130.33062333887187     
 CH           1.1110764789967968     
 CCH          119.82399882271750     
Constants
 xm1          3.6800000000000002     
 ym1          3.6800000000000002     
 zm1          6.9032293999999998     
------------ End of Z-matrix Information

                     ====================================

outcell: Unit cell vectors (Ang):
       11.776283    0.000000    0.000000
        0.000000   11.030875    0.000000
        0.000000    0.000000    6.266317

outcell: Cell vector modules (Ang)   :   11.776283   11.030875    6.266317
outcell: Cell angles (23,13,12) (deg):     90.0000     90.0000     90.0000
outcell: Cell volume (Ang**3)        :    814.0116
<dSpData1D:S at geom step 4
  <sparsity:sparsity for geom step 4
    nrows_g=108 nrows=14 sparsity=.1296 nnzs=1512, refcount: 7>
  <dData1D:(new from dSpData1D) n=1512, refcount: 1>
refcount: 1>
new_DM -- step:     5
Re-using DM from previous geometries...
Number of DMs in history: 1
 DM extrapolation coefficients: 
1   1.00000
New DM after history re-use:
<dSpData2D:SpM extrapolated using coords
  <sparsity:sparsity for geom step 4
    nrows_g=108 nrows=14 sparsity=.1296 nnzs=1512, refcount: 9>
  <dData2D:(temp array for extrapolation) n=1512 m=1, refcount: 1>
refcount: 1>
Note: For starting DM, Qtot, Tr[D*S] =         30.00000000         30.07719310
No. of atoms with KB's overlaping orbs in proc 0. Max # of overlaps:       9      97
New grid distribution:   1
           1       1:   40    1:   20    1:    6
           2       1:   40    1:   20    7:   12
           3       1:   40    1:   20   13:   18
           4       1:   40    1:   20   19:   24
           5       1:   40   21:   40    1:    6
           6       1:   40   21:   40    7:   12
           7       1:   40   21:   40   13:   18
           8       1:   40   21:   40   19:   24

InitMesh: MESH =    80 x    80 x    48 =      307200
InitMesh: (bp) =    40 x    40 x    24 =       38400
InitMesh: Mesh cutoff (required, used) =   120.000   127.546 Ry
ExtMesh (bp) on 0 =    80 x    64 x    50 =      256000
New grid distribution:   2
           1       1:   19   16:   40    1:    7
           2       1:   20    1:   15    7:   24
           3       1:   19   16:   40    8:   24
           4      21:   40    1:   15    1:    7
           5      21:   40    1:   15    8:   24
           6      20:   40   16:   40    7:   24
           7      20:   40   16:   40    1:    6
           8       1:   20    1:   15    1:    6
New grid distribution:   3
           1      21:   40    1:   16    1:   10
           2      21:   40    1:   16   11:   24
           3       1:   19   17:   40   10:   24
           4       1:   20    1:   16   10:   24
           5      20:   40   17:   40    1:    9
           6       1:   19   17:   40    1:    9
           7      20:   40   17:   40   10:   24
           8       1:   20    1:   16    1:    9
Setting up quadratic distribution...
ExtMesh (bp) on 0 =    59 x    69 x    51 =      207621
PhiOnMesh: Number of (b)points on node 0 =                 3325
PhiOnMesh: nlist on node 0 =                50293

        iscf     Eharris(eV)        E_KS(eV)     FreeEng(eV)     dDmax    Ef(eV) dHmax(eV)
   scf:    1    -1016.791218    -1016.766334    -1016.766334  0.067926 -4.602705  1.666685
   scf:    2    -1003.166723    -1012.561456    -1012.561457  0.218362 -5.060946  9.785758
   scf:    3    -1016.725281    -1016.881621    -1016.881621  0.223597 -4.704754  0.993623
   scf:    4    -1016.952250    -1016.945309    -1016.945309  0.026561 -4.712712  0.068017
   scf:    5    -1016.946252    -1016.945985    -1016.945985  0.003437 -4.703669  0.036560
   scf:    6    -1016.946016    -1016.946037    -1016.946037  0.000923 -4.702052  0.012102
   scf:    7    -1016.946052    -1016.946049    -1016.946049  0.000340 -4.700045  0.003657
   scf:    8    -1016.946050    -1016.946050    -1016.946050  0.000149 -4.699379  0.002487
   scf:    9    -1016.946050    -1016.946050    -1016.946050  0.000058 -4.699499  0.000784

SCF Convergence by DM+H criterion
max |DM_out - DM_in|         :     0.0000581133
max |H_out - H_in|      (eV) :     0.0007835013
SCF cycle converged after 9 iterations

Using DM_out to compute the final energy and forces
No. of atoms with KB's overlaping orbs in proc 0. Max # of overlaps:       9      97

siesta: E_KS(eV) =            -1016.9461

zmatrix: Atomic forces (eV/Ang ; eV/deg )
zmatrix: (No information if symbols are used)
molecule    1 (    12 atoms)
     1    0.000000    0.000000    0.000000
     2    0.000000    0.000000    0.000000
     3    0.000000    0.000000    0.000000
     4    0.000000    0.000000    0.000000
     5    0.000000    0.000000    0.000000
     6    0.000000    0.000000    0.000000
     7    0.000000    0.000000    0.000000
     8    0.000000    0.000000    0.000000
     9    0.000000    0.000000    0.000000
    10    0.000000    0.000000    0.000000
    11    0.000000    0.000000    0.000000
    12    0.000000    0.000000    0.000000


Variable forces (eV/Ang ; eV/deg )
 CC          -11.950678841795547     
 CCC        -0.45089117084603525     
 CH          0.42606158937246030     
 CCH         -3.3998518462365758E-003

siesta: Atomic forces (eV/Ang):
----------------------------------------
   Tot   -0.003194   -0.010750    0.000589
----------------------------------------
   Max    3.884856
   Res    1.438933    sqrt( Sum f_i^2 / 3N )
----------------------------------------
   Max    3.884856    constrained

Stress tensor Voigt[x,y,z,yz,xz,xy] (kbar):       16.89       15.43       -0.09        0.00       -0.00       -3.82
(Free)E + p*V (eV/cell)    -1022.4057
Target enthalpy (eV/cell)    -1016.9461
 Power > 0
FIRE: step, dt, npos, alpha, magv, magf, long
FIREdat:     5    0.0750   2    0.1000    0.508290    1.954946    0
FIRE: nvar, x, v, f
           1   2.6580367651615240      -0.13898004067476108      -0.46480356740984297     
           2   2.2433832418388957      -0.48874022191738126       -1.8987609041136817     
           3   2.1001120921079934        7.0348330749428938E-003   1.6571020717587384E-002
           4   2.0905180420988163       -1.1273699068919795E-002  -1.4317214846544593E-002

outcoor: Final (unrelaxed) atomic coordinates (Ang):        
    3.68000000    3.68000000    6.90322940   2       1  C
    4.38569801    4.90230481    6.90322940   2       2  C
    5.77421437    5.15540772    6.90322940   2       3  C
    6.86580447    4.26071794    6.90322940   2       4  C
    6.89023649    2.84953340    6.90322940   2       5  C
    5.83027106    1.91759347    6.90322940   2       6  C
    2.56892876    3.68341300    6.90322940   1       7  H
    3.82720665    5.86281423    6.90322940   1       8  H
    6.14497822    6.20279738    6.90322940   1       9  H
    7.90421058    4.65594409    6.90322940   1      10  H
    7.86357992    2.31372233    6.90322940   1      11  H
    6.05175547    0.82881636    6.90322940   1      12  H

zmatrix: Z-matrix coordinates: (Ang ; deg )
zmatrix: (Fractional coordinates have been converted to cartesian)
molecule    1 (    12 atoms)
      3.68000000      3.68000000      6.90322940
      1.40657192     90.00000000     60.00000000
      1.40657192    128.53639159     90.00000000
      1.40657192    128.53639159      0.00000000
      1.40657192    128.53639159      0.00000000
      1.40657192    128.53639159      0.00000000
      1.11133102    119.77786081    180.00000000
      1.11133102    119.77786081      0.00000000
      1.11133102    119.77786081      0.00000000
      1.11133102    119.77786081      0.00000000
      1.11133102    119.77786081      0.00000000
      1.11133102    119.77786081      0.00000000


Z-matrix Symbol Section -------
Variables
 CC           1.4065719212778798     
 CCC          128.53639158774521     
 CH           1.1113310165654318     
 CCH          119.77786080821433     
Constants
 xm1          3.6800000000000002     
 ym1          3.6800000000000002     
 zm1          6.9032293999999998     
------------ End of Z-matrix Information


siesta: Program's energy decomposition (eV):
siesta: Ebs     =      -351.405331
siesta: Eions   =      1613.953835
siesta: Ena     =       344.966484
siesta: Ekin    =       714.626751
siesta: Enl     =      -112.905496
siesta: Eso     =         0.000000
siesta: Edftu   =         0.000000
siesta: DEna    =       -27.043445
siesta: DUscf   =         3.365620
siesta: DUext   =         0.000000
siesta: Exc     =      -326.002129
siesta: eta*DQ  =         0.000000
siesta: Emadel  =         0.000000
siesta: Emeta   =         0.000000
siesta: Emolmec =         0.000000
siesta: Ekinion =         0.000000
siesta: Eharris =     -1016.946050
siesta: Etot    =     -1016.946050
siesta: FreeEng =     -1016.946050

siesta: Final energy (eV):
siesta:  Band Struct. =    -351.405331
siesta:       Kinetic =     714.626751
siesta:       Hartree =    1620.093296
siesta:       Edftu   =       0.000000
siesta:       Eso     =       0.000000
siesta:    Ext. field =       0.000000
siesta:   Exch.-corr. =    -326.002129
siesta:  Ion-electron =   -3880.178772
siesta:       Ion-ion =     854.514804
siesta:       Ekinion =       0.000000
siesta:         Total =   -1016.946050
siesta:         Fermi =      -4.699499

siesta: Atomic forces (eV/Ang):
siesta:      1    3.482528    2.012401    0.000326
siesta:      2   -1.488024   -2.608876    0.000035
siesta:      3    2.952885   -1.218218    0.000553
siesta:      4   -0.918157    1.190963    0.000302
siesta:      5   -3.158779   -2.833701    0.000521
siesta:      6    1.068157    3.884856    0.000620
siesta:      7   -0.023664   -0.836647   -0.000237
siesta:      8   -0.664341   -0.095201   -0.000127
siesta:      9   -0.459355    0.088656   -0.000846
siesta:     10   -0.251755    0.506605   -0.000974
siesta:     11    0.334053    0.121973    0.000358
siesta:     12   -0.876740   -0.223561    0.000059
siesta: ----------------------------------------
siesta:    Tot   -0.003194   -0.010750    0.000589

siesta: Stress tensor (static) (eV/Ang**3):
siesta:     0.010543   -0.002383   -0.000000
siesta:    -0.002383    0.009633    0.000001
siesta:    -0.000000    0.000001   -0.000054

siesta: Cell volume =        814.011582 Ang**3

siesta: Pressure (static):
siesta:                Solid            Molecule  Units
siesta:          -0.00007305          0.00000003  Ry/Bohr**3
siesta:          -0.00670706          0.00000273  eV/Ang**3
siesta:         -10.74601278          0.00436984  kBar
(Free)E+ p_basis*V_orbitals  =       -1012.942857
(Free)Eharris+ p_basis*V_orbitals  =       -1012.942857

siesta: Electric dipole (a.u.)  =    0.221982    0.159809   -0.000078
siesta: Electric dipole (Debye) =    0.564222    0.406193   -0.000197

cite: Please see "fire_benzene.bib" for an exhaustive BiBTeX file.
cite: Please clearly indicate Siesta version in published work: v4.1-b4-351
cite: This calculation has made use of the following articles
cite: which are encouraged to be cited in a published work.
        Primary SIESTA paper
          DOI: www.doi.org/10.1088/0953-8984/14/11/302

>> End of run:  22-JAN-2021  22:11:06
Job completed
