Siesta Version: siesta-3.2
Architecture  : SIESTA_ARCH
Compiler flags: FFLAGS
PARALLEL version
NetCDF support

* Running on    4 nodes in parallel
>> Start of run:  24-MAR-2013  18:27:48

                           ***********************       
                           *  WELCOME TO SIESTA  *       
                           ***********************       

reinit: Reading from standard input
************************** Dump of input data file ****************************
SystemName          Water molecule with Floating H orbitals
SystemLabel         floating
NumberOfAtoms       5
NumberOfSpecies     3
%block ChemicalSpeciesLabel
 1  8  O      # Species index, atomic number, species label
 2  1  H
 3  -1 Hfloat
%endblock ChemicalSpeciesLabel
AtomicCoordinatesFormat  Ang
%block AtomicCoordinatesAndAtomicSpecies
 0.000  0.000  0.000  1
 0.757  0.586  0.000  2
-0.757  0.586  0.000  2
 0.3785 0.293  0.000  3
-0.3785 0.293  0.000  3
%endblock AtomicCoordinatesAndAtomicSpecies
************************** End of input data file *****************************

reinit: -----------------------------------------------------------------------
reinit: System Name: Water molecule with Floating H orbitals
reinit: -----------------------------------------------------------------------
reinit: System Label: floating                                                    
reinit: -----------------------------------------------------------------------

initatom: Reading input for the pseudopotentials and atomic orbitals ----------
 Species number:            1  Label: O Atomic number:           8
 Species number:            2  Label: H Atomic number:           1
 Species number:            3  Label: Hfloat Atomic number:          -1  (floating PAOs)
Ground state valence configuration:   2s02  2p04
Reading pseudopotential information in formatted form from O.psf

Valence configuration for pseudopotential generation:
2s( 2.00) rc: 1.14
2p( 4.00) rc: 1.14
3d( 0.00) rc: 1.14
4f( 0.00) rc: 1.14
Ground state valence configuration:   1s01
Reading pseudopotential information in formatted form from H.psf

Valence configuration for pseudopotential generation:
1s( 1.00) rc: 1.25
2p( 0.00) rc: 1.25
3d( 0.00) rc: 1.25
4f( 0.00) rc: 1.25
Ground state valence configuration:   1s01
Reading pseudopotential information in formatted form from Hfloat.psf

Valence configuration for pseudopotential generation:
1s( 1.00) rc: 1.25
2p( 0.00) rc: 1.25
3d( 0.00) rc: 1.25
4f( 0.00) rc: 1.25
For O, standard SIESTA heuristics set lmxkb to 3
 (one more than the basis l, including polarization orbitals).
Use PS.lmax or PS.KBprojectors blocks to override.
For H, standard SIESTA heuristics set lmxkb to 2
 (one more than the basis l, including polarization orbitals).
Use PS.lmax or PS.KBprojectors blocks to override.

<basis_specs>
===============================================================================
O                    Z=   8    Mass=  16.000        Charge= 0.17977+309
Lmxo=1 Lmxkb= 3    BasisType=split      Semic=F
L=0  Nsemic=0  Cnfigmx=2
          n=1  nzeta=2  polorb=0
            splnorm:   0.15000    
               vcte:    0.0000    
               rinn:    0.0000    
                rcs:    0.0000      0.0000    
            lambdas:    1.0000      1.0000    
L=1  Nsemic=0  Cnfigmx=2
          n=1  nzeta=2  polorb=1
            splnorm:   0.15000    
               vcte:    0.0000    
               rinn:    0.0000    
                rcs:    0.0000      0.0000    
            lambdas:    1.0000      1.0000    
-------------------------------------------------------------------------------
L=0  Nkbl=1  erefs: 0.17977+309
L=1  Nkbl=1  erefs: 0.17977+309
L=2  Nkbl=1  erefs: 0.17977+309
L=3  Nkbl=1  erefs: 0.17977+309
===============================================================================
</basis_specs>

atom: Called for O                     (Z =   8)

read_vps: Pseudopotential generation method:
read_vps: ATM3      Troullier-Martins                       
Total valence charge:    6.00000

xc_check: Exchange-correlation functional:
xc_check: Ceperley-Alder
V l=0 = -2*Zval/r beyond r=  1.1278
V l=1 = -2*Zval/r beyond r=  1.1278
V l=2 = -2*Zval/r beyond r=  1.1278
V l=3 = -2*Zval/r beyond r=  1.1138
All V_l potentials equal beyond r=  1.1278
This should be close to max(r_c) in ps generation
All pots = -2*Zval/r beyond r=  1.1278

VLOCAL1: 99.0% of the norm of Vloc inside     34.126 Ry
VLOCAL1: 99.9% of the norm of Vloc inside     77.774 Ry
atom: Maximum radius for 4*pi*r*r*local-pseudopot. charge    1.37759
atom: Maximum radius for r*vlocal+2*Zval:    1.18566
GHOST: No ghost state for L =  0
GHOST: No ghost state for L =  1
GHOST: No ghost state for L =  2
GHOST: No ghost state for L =  3

KBgen: Kleinman-Bylander projectors: 
   l= 0   rc=  1.294105   el= -1.742414   Ekb=  9.135903   kbcos=  0.326910
   l= 1   rc=  1.294105   el= -0.676589   Ekb= -8.124878   kbcos= -0.395047
   l= 2   rc=  1.448233   el=  0.002386   Ekb= -2.039267   kbcos= -0.003484
   l= 3   rc=  1.561052   el=  0.003508   Ekb= -0.799141   kbcos= -0.000344

KBgen: Total number of  Kleinman-Bylander projectors:   16
atom: -------------------------------------------------------------------------

atom: SANKEY-TYPE ORBITALS:
atom: Selected multiple-zeta basis: split     

SPLIT: Orbitals with angular momentum L= 0

SPLIT: Basis orbitals for state 2s

SPLIT: PAO cut-off radius determined from an
SPLIT: energy shift=  0.020000 Ry

   izeta = 1
                 lambda =    1.000000
                     rc =    3.305093
                 energy =   -1.723766
                kinetic =    1.614911
    potential(screened) =   -3.338677
       potential(ionic) =  -11.304675

   izeta = 2
                 rmatch =    2.510382
              splitnorm =    0.150000
                 energy =   -1.471299
                kinetic =    2.446434
    potential(screened) =   -3.917732
       potential(ionic) =  -12.476133

SPLIT: Orbitals with angular momentum L= 1

SPLIT: Basis orbitals for state 2p

SPLIT: PAO cut-off radius determined from an
SPLIT: energy shift=  0.020000 Ry

   izeta = 1
                 lambda =    1.000000
                     rc =    3.937239
                 energy =   -0.658841
                kinetic =    5.005986
    potential(screened) =   -5.664827
       potential(ionic) =  -13.452360

   izeta = 2
                 rmatch =    2.541963
              splitnorm =    0.150000
                 energy =   -0.367441
                kinetic =    7.530509
    potential(screened) =   -7.897949
       potential(ionic) =  -16.611953

POLgen: Perturbative polarization orbital with L=  2

POLgen: Polarization orbital for state 2p

   izeta = 1
                     rc =    3.937239
                 energy =    2.398520
                kinetic =    4.716729
    potential(screened) =   -2.318209
       potential(ionic) =   -8.603170
atom: Total number of Sankey-type orbitals: 13

atm_pop: Valence configuration (for local Pseudopot. screening):
 2s( 2.00)                                                            
 2p( 4.00)                                                            
Vna: chval, zval:    6.00000   6.00000

Vna:  Cut-off radius for the neutral-atom potential:   3.937239

atom: _________________________________________________________________________

<basis_specs>
===============================================================================
H                    Z=   1    Mass=  1.0100        Charge= 0.17977+309
Lmxo=0 Lmxkb= 2    BasisType=split      Semic=F
L=0  Nsemic=0  Cnfigmx=1
          n=1  nzeta=2  polorb=1
            splnorm:   0.15000    
               vcte:    0.0000    
               rinn:    0.0000    
                rcs:    0.0000      0.0000    
            lambdas:    1.0000      1.0000    
-------------------------------------------------------------------------------
L=0  Nkbl=1  erefs: 0.17977+309
L=1  Nkbl=1  erefs: 0.17977+309
L=2  Nkbl=1  erefs: 0.17977+309
===============================================================================
</basis_specs>

atom: Called for H                     (Z =   1)

read_vps: Pseudopotential generation method:
read_vps: ATM3      Troullier-Martins                       
Total valence charge:    1.00000

xc_check: Exchange-correlation functional:
xc_check: Ceperley-Alder
V l=0 = -2*Zval/r beyond r=  1.2343
V l=1 = -2*Zval/r beyond r=  1.2189
V l=2 = -2*Zval/r beyond r=  1.2189
All V_l potentials equal beyond r=  1.2343
This should be close to max(r_c) in ps generation
All pots = -2*Zval/r beyond r=  1.2343

VLOCAL1: 99.0% of the norm of Vloc inside     28.493 Ry
VLOCAL1: 99.9% of the norm of Vloc inside     64.935 Ry
atom: Maximum radius for 4*pi*r*r*local-pseudopot. charge    1.45251
atom: Maximum radius for r*vlocal+2*Zval:    1.21892
GHOST: No ghost state for L =  0
GHOST: No ghost state for L =  1
GHOST: No ghost state for L =  2

KBgen: Kleinman-Bylander projectors: 
   l= 0   rc=  1.364359   el= -0.467325   Ekb= -2.005361   kbcos= -0.336422
   l= 1   rc=  1.434438   el=  0.001430   Ekb= -0.501708   kbcos= -0.021697
   l= 2   rc=  1.470814   el=  0.002365   Ekb= -0.190555   kbcos= -0.002281

KBgen: Total number of  Kleinman-Bylander projectors:    9
atom: -------------------------------------------------------------------------

atom: SANKEY-TYPE ORBITALS:
atom: Selected multiple-zeta basis: split     

SPLIT: Orbitals with angular momentum L= 0

SPLIT: Basis orbitals for state 1s

SPLIT: PAO cut-off radius determined from an
SPLIT: energy shift=  0.020000 Ry

   izeta = 1
                 lambda =    1.000000
                     rc =    4.828263
                 energy =   -0.449375
                kinetic =    0.929372
    potential(screened) =   -1.378747
       potential(ionic) =   -1.915047

   izeta = 2
                 rmatch =    3.854947
              splitnorm =    0.150000
                 energy =   -0.336153
                kinetic =    1.505294
    potential(screened) =   -1.841447
       potential(ionic) =   -2.413582

POLgen: Perturbative polarization orbital with L=  1

POLgen: Polarization orbital for state 1s

   izeta = 1
                     rc =    4.828263
                 energy =    0.706972
                kinetic =    1.396397
    potential(screened) =   -0.689424
       potential(ionic) =   -1.169792
atom: Total number of Sankey-type orbitals:  5

atm_pop: Valence configuration (for local Pseudopot. screening):
 1s( 1.00)                                                            
Vna: chval, zval:    1.00000   1.00000

Vna:  Cut-off radius for the neutral-atom potential:   4.828263

atom: _________________________________________________________________________

<basis_specs>
===============================================================================
Hfloat               Z=  -1    Mass= 0.10000E+41    Charge= 0.17977+309
Lmxo=0 Lmxkb=-1    BasisType=split      Semic=F
L=0  Nsemic=0  Cnfigmx=1
          n=1  nzeta=2  polorb=1
            splnorm:   0.15000    
               vcte:    0.0000    
               rinn:    0.0000    
                rcs:    0.0000      0.0000    
            lambdas:    1.0000      1.0000    
-------------------------------------------------------------------------------
===============================================================================
</basis_specs>

atom: Called for Hfloat                (Z =  -1) ( Floating basis ) 

read_vps: Pseudopotential generation method:
read_vps: ATM3      Troullier-Martins                       
Total valence charge:    1.00000

xc_check: Exchange-correlation functional:
xc_check: Ceperley-Alder
atom: -------------------------------------------------------------------------

atom: SANKEY-TYPE ORBITALS:
atom: Selected multiple-zeta basis: split     

SPLIT: Orbitals with angular momentum L= 0

SPLIT: Basis orbitals for state 1s

SPLIT: PAO cut-off radius determined from an
SPLIT: energy shift=  0.020000 Ry

   izeta = 1
                 lambda =    1.000000
                     rc =    4.828263
                 energy =   -0.449375
                kinetic =    0.929372
    potential(screened) =   -1.378747
       potential(ionic) =   -1.915047

   izeta = 2
                 rmatch =    3.854947
              splitnorm =    0.150000
                 energy =   -0.336153
                kinetic =    1.505294
    potential(screened) =   -1.841447
       potential(ionic) =   -2.413582

POLgen: Perturbative polarization orbital with L=  1

POLgen: Polarization orbital for state 1s

   izeta = 1
                     rc =    4.828263
                 energy =    0.706972
                kinetic =    1.396397
    potential(screened) =   -0.689424
       potential(ionic) =   -1.169792
atom: Total number of Sankey-type orbitals:  5

atom: _________________________________________________________________________

prinput: Basis input ----------------------------------------------------------

PAO.BasisType split     

%block ChemicalSpeciesLabel
    1    8 O                       # Species index, atomic number, species label
    2    1 H                       # Species index, atomic number, species label
    3   -1 Hfloat                  # Species index, atomic number, species label
%endblock ChemicalSpeciesLabel

%block PAO.Basis                 # Define Basis set
O                     2                    # Species label, number of l-shells
 n=2   0   2                         # n, l, Nzeta 
   3.305      2.510   
   1.000      1.000   
 n=2   1   2 P   1                   # n, l, Nzeta, Polarization, NzetaPol
   3.937      2.542   
   1.000      1.000   
H                     1                    # Species label, number of l-shells
 n=1   0   2 P   1                   # n, l, Nzeta, Polarization, NzetaPol
   4.828      3.855   
   1.000      1.000   
Hfloat                1                    # Species label, number of l-shells
 n=1   0   2 P   1                   # n, l, Nzeta, Polarization, NzetaPol
   4.828      3.855   
   1.000      1.000   
%endblock PAO.Basis

prinput: ----------------------------------------------------------------------

Dumping basis to NetCDF file O.ion.nc
Dumping basis to NetCDF file H.ion.nc
Dumping basis to NetCDF file Hfloat.ion.nc
coor:   Atomic-coordinates input format  =     Cartesian coordinates
coor:                                          (in Angstroms)

siesta: Atomic coordinates (Bohr) and species
siesta:      0.00000   0.00000   0.00000  1        1
siesta:      1.43052   1.10738   0.00000  2        2
siesta:     -1.43052   1.10738   0.00000  2        3
siesta:      0.71526   0.55369   0.00000  3        4
siesta:     -0.71526   0.55369   0.00000  3        5

siesta: Automatic unit cell vectors (Ang):
siesta:    7.286412    0.000000    0.000000
siesta:    0.000000    5.943312    0.000000
siesta:    0.000000    0.000000    5.621012

siesta: System type = molecule  

initatomlists: Number of atoms, orbitals, and projectors:      5    33    34

siesta: ******************** Simulation parameters ****************************
siesta:
siesta: The following are some of the parameters of the simulation.
siesta: A complete list of the parameters used, including default values,
siesta: can be found in file out.fdf
siesta:
redata: Non-Collinear-spin run           =     F
redata: SpinPolarized (Up/Down) run      =     F
redata: Number of spin components        =     1
redata: Long output                      =     F
redata: Number of Atomic Species         =        3
redata: Charge density info will appear in .RHO file
redata: Write Mulliken Pop.              =     NO
redata: Mesh Cutoff                      =   100.0000  Ry
redata: Net charge of the system         =     0.0000 |e|
redata: Max. number of SCF Iter          =       50
redata: Mixing is linear
redata: Mix DM in first SCF step ?       =     F
redata: Write Pulay info on disk?        =     F
redata: Discard 1st Pulay DM after  kick =     F
redata: New DM Mixing Weight             =     0.2500
redata: New DM Occupancy tolerance       = 0.000000000001
redata: No kicks to SCF
redata: DM Mixing Weight for Kicks       =     0.5000
redata: DM Tolerance for SCF             =     0.000100
redata: Require Energy convergence for SCF =     F
redata: DM Energy tolerance for SCF      =     0.000100 eV
redata: Require Harris convergence for SCF =     F
redata: DM Harris energy tolerance for SCF =     0.000100 eV
redata: Using Saved Data (generic)   =     F
redata: Use continuation files for DM    =     F
redata: Neglect nonoverlap interactions  =     F
redata: Method of Calculation            =     Diagonalization
redata: Divide and Conquer               =     T
redata: Electronic Temperature           =     0.0019  Ry
redata: Fix the spin of the system       =     F
redata: Dynamics option                  =     Verlet MD run
redata: Initial MD time step             =        1
redata:   Final MD time step             =        1
redata: Length of MD time step           =     1.0000  fs
redata: Initial Temperature of MD run    =     0.0000  K
redata: Perform a MD quench              =     F
redata: ***********************************************************************
Total number of electrons:     8.000000
Total ionic charge:     8.000000

* ProcessorY, Blocksize:    2   9

 Kpoints in:            1 . Kpoints trimmed:            1

siesta: k-grid: Number of k-points =     1
siesta: k-grid: Cutoff (effective) =     2.811 Ang
siesta: k-grid: Supercell and displacements
siesta: k-grid:    1   0   0      0.000
siesta: k-grid:    0   1   0      0.000
siesta: k-grid:    0   0   1      0.000

* Maximum dynamic memory allocated =     3 MB

siesta:                 ==============================
                            Begin MD step =      1
                        ==============================

outcell: Unit cell vectors (Ang):
        7.286412    0.000000    0.000000
        0.000000    5.943312    0.000000
        0.000000    0.000000    5.621012

outcell: Cell vector modules (Ang)   :    7.286412    5.943312    5.621012
outcell: Cell angles (23,13,12) (deg):     90.0000     90.0000     90.0000
outcell: Cell volume (Ang**3)        :    243.4203
siesta: WARNING: Atoms     1     5 too close: rij =    0.478656 Ang
siesta: WARNING: Atoms     2     4 too close: rij =    0.478656 Ang
siesta: WARNING: Atoms     3     5 too close: rij =    0.478656 Ang
New_DM. Step:     1
Initializing Density Matrix...

InitMesh: MESH =    48 x    36 x    36 =       62208
InitMesh: Mesh cutoff (required, used) =   100.000   101.403 Ry

* Maximum dynamic memory allocated =     4 MB

stepf: Fermi-Dirac step function

siesta: Program's energy decomposition (eV):
siesta: Ebs     =      -124.549085
siesta: Eions   =       815.854478
siesta: Ena     =       175.154321
siesta: Ekin    =       341.667405
siesta: Enl     =       -52.736757
siesta: DEna    =        -0.000002
siesta: DUscf   =         0.000000
siesta: DUext   =         0.000000
siesta: Exc     =      -109.900277
siesta: eta*DQ  =         0.000000
siesta: Emadel  =         0.000000
siesta: Emeta   =         0.000000
siesta: Emolmec =         0.000000
siesta: Ekinion =         0.000000
siesta: Eharris =      -466.953013
siesta: Etot    =      -461.669787
siesta: FreeEng =      -461.669787

siesta: iscf   Eharris(eV)      E_KS(eV)   FreeEng(eV)   dDmax  Ef(eV)
siesta:    1     -466.9530     -461.6698     -461.6698  1.6296 -3.2068
timer: Routine,Calls,Time,% = IterSCF        1       4.656  67.12
elaps: Routine,Calls,Wall,% = IterSCF        1       1.152  64.83
siesta:    2     -467.5574     -465.5962     -465.5962  0.1816  1.3991
siesta:    3     -466.3912     -465.8562     -465.8562  0.0427 -0.3370
siesta:    4     -466.3050     -465.9732     -465.9732  0.0192 -0.8001
siesta:    5     -466.2977     -466.0547     -466.0547  0.0160 -0.9274
siesta:    6     -466.2970     -466.1153     -466.1153  0.0124 -0.9612
siesta:    7     -466.2969     -466.1607     -466.1607  0.0093 -0.9691
siesta:    8     -466.2968     -466.1947     -466.1947  0.0070 -0.9702
siesta:    9     -466.2969     -466.2203     -466.2203  0.0052 -0.9699
siesta:   10     -466.2969     -466.2394     -466.2394  0.0039 -0.9693
siesta:   11     -466.2969     -466.2538     -466.2538  0.0029 -0.9689
siesta:   12     -466.2968     -466.2645     -466.2645  0.0022 -0.9687
siesta:   13     -466.2969     -466.2726     -466.2726  0.0016 -0.9685
siesta:   14     -466.2968     -466.2787     -466.2787  0.0012 -0.9685
siesta:   15     -466.2968     -466.2832     -466.2832  0.0009 -0.9684
siesta:   16     -466.2968     -466.2866     -466.2866  0.0007 -0.9684
siesta:   17     -466.2968     -466.2892     -466.2892  0.0005 -0.9684
siesta:   18     -466.2969     -466.2911     -466.2911  0.0004 -0.9683
siesta:   19     -466.2969     -466.2926     -466.2926  0.0003 -0.9683
siesta:   20     -466.2969     -466.2936     -466.2936  0.0002 -0.9683
siesta:   21     -466.2969     -466.2944     -466.2944  0.0002 -0.9683
siesta:   22     -466.2969     -466.2950     -466.2950  0.0001 -0.9683
siesta:   23     -466.2969     -466.2955     -466.2955  0.0001 -0.9683

siesta: E_KS(eV) =             -466.2958

siesta: E_KS - E_eggbox =      -466.2958

siesta: Atomic forces (eV/Ang):
----------------------------------------
   Tot    0.000001   -0.106152    0.000000
----------------------------------------
   Max    0.647427
   Res    0.353556    sqrt( Sum f_i^2 / 3N )
----------------------------------------
   Max    0.647427    constrained

Stress-tensor-Voigt (kbar):       -6.59       -3.07       -0.86        0.00        0.00       -0.00
(Free)E + p*V (eV/cell)     -465.7632
Target enthalpy (eV/cell)     -466.2958

siesta: Stress tensor (static) (eV/Ang**3):
        -0.004112    0.000000   -0.000000
         0.000000   -0.001916    0.000000
        -0.000000    0.000000   -0.000536

siesta: Pressure (static):          3.50557833  kBar

siesta: Stress tensor (total) (eV/Ang**3):
        -0.004112    0.000000   -0.000000
         0.000000   -0.001916    0.000000
        -0.000000    0.000000   -0.000536

siesta: Pressure (total):          3.50557833  kBar

siesta: Temp_ion =       0.000 K

* Maximum dynamic memory allocated =     4 MB

siesta: Program's energy decomposition (eV):
siesta: Ebs     =      -106.141883
siesta: Eions   =       815.854478
siesta: Ena     =       175.154321
siesta: Ekin    =       349.735660
siesta: Enl     =       -61.303097
siesta: DEna    =        -1.915397
siesta: DUscf   =         0.772595
siesta: DUext   =         0.000000
siesta: Exc     =      -112.885451
siesta: eta*DQ  =         0.000000
siesta: Emadel  =         0.000000
siesta: Emeta   =         0.000000
siesta: Emolmec =         0.000000
siesta: Ekinion =         0.000000
siesta: Eharris =      -466.296861
siesta: Etot    =      -466.295846
siesta: FreeEng =      -466.295846

siesta: Final energy (eV):
siesta:  Band Struct. =    -106.141883
siesta:       Kinetic =     349.735660
siesta:       Hartree =     385.353287
siesta:    Ext. field =       0.000000
siesta:   Exch.-corr. =    -112.885451
siesta:  Ion-electron =   -1078.676640
siesta:       Ion-ion =      -9.822702
siesta:       Ekinion =       0.000000
siesta:         Total =    -466.295846

siesta: Atomic forces (eV/Ang):
siesta:      1   -0.000000   -0.383202    0.000000
siesta:      2    0.647427    0.535803    0.000000
siesta:      3   -0.647426    0.535804    0.000000
siesta:      4    0.003985   -0.397278   -0.000000
siesta:      5   -0.003985   -0.397278   -0.000000
siesta: ----------------------------------------
siesta:    Tot    0.000001   -0.106152    0.000000

siesta: Stress tensor (static) (eV/Ang**3):
siesta:    -0.004112    0.000000   -0.000000
siesta:     0.000000   -0.001916    0.000000
siesta:    -0.000000    0.000000   -0.000536

siesta: Cell volume =        243.420338 Ang**3

siesta: Pressure (static):
siesta:                Solid            Molecule  Units
siesta:           0.00002383          0.00000272  Ry/Bohr**3
siesta:           0.00218799          0.00024936  eV/Ang**3
siesta:           3.50557833          0.39952917  kBar
(Free)E+ p_basis*V_orbitals  =        -465.273054
(Free)Eharris+ p_basis*V_orbitals  =        -465.274418

siesta: Electric dipole (a.u.)  =   -0.000000    0.626066   -0.000000
siesta: Electric dipole (Debye) =   -0.000000    1.591303   -0.000000

* Maximum dynamic memory allocated : Node    0 =     4 MB
* Maximum dynamic memory allocated : Node    1 =     4 MB
* Maximum dynamic memory allocated : Node    2 =     4 MB
* Maximum dynamic memory allocated : Node    3 =     4 MB

* Maximum memory occured during ranger                        

timer: CPU execution times:
timer:  Routine       Calls   Time/call    Tot.time        %
timer:  siesta            1       9.526       9.526   100.00
timer:  Setup             1       1.572       1.572    16.50
timer:  bands             1       0.000       0.000     0.00
timer:  writewave         1       0.000       0.000     0.00
timer:  KSV_init          1       0.000       0.000     0.00
timer:  IterMD            1       7.927       7.927    83.22
timer:  hsparse           1       0.001       0.001     0.01
timer:  overlap           1       0.490       0.490     5.14
timer:  IterSCF          23       0.303       6.965    73.12
timer:  kinefsm           2       0.221       0.443     4.65
timer:  nlefsm            2       1.700       3.400    35.70
timer:  DHSCF            24       0.103       2.465    25.87
timer:  DHSCF1            1       0.052       0.052     0.55
timer:  DHSCF2            1       0.120       0.120     1.26
timer:  REORD           194       0.000       0.024     0.25
timer:  POISON           25       0.016       0.406     4.26
timer:  DHSCF3           24       0.091       2.178    22.86
timer:  rhoofd           24       0.029       0.708     7.43
timer:  cellXC           24       0.015       0.349     3.66
timer:  vmat             24       0.019       0.467     4.90
timer:  MolMec            2       0.000       0.000     0.00
timer:  diagon           23       0.009       0.208     2.18
timer:  r-eigvec         23       0.009       0.204     2.14
timer:  r-buildHS        23       0.000       0.000     0.00
timer:  rdiag            23       0.009       0.204     2.14
timer:  rdiag1           23       0.000       0.008     0.08
timer:  rdiag2           23       0.001       0.017     0.18
timer:  rdiag3           23       0.007       0.165     1.73
timer:  rdiag4           23       0.000       0.003     0.03
timer:  r-buildD         23       0.000       0.004     0.04
timer:  DHSCF4            1       0.106       0.106     1.11
timer:  dfscf             1       0.096       0.096     1.01
timer:  overfsm           1       0.001       0.001     0.01
timer:  optical           1       0.023       0.023     0.24
  

elaps: ELAPSED times:
elaps:  Routine       Calls   Time/call    Tot.time        %
elaps:  siesta            1       2.426       2.426   100.00
elaps:  Setup             1       0.432       0.432    17.81
elaps:  bands             1       0.000       0.000     0.00
elaps:  writewave         1       0.000       0.000     0.00
elaps:  KSV_init          1       0.000       0.000     0.00
elaps:  IterMD            1       1.987       1.987    81.90
elaps:  hsparse           1       0.001       0.001     0.04
elaps:  overlap           1       0.134       0.134     5.52
elaps:  IterSCF          23       0.075       1.730    71.31
elaps:  kinefsm           2       0.061       0.122     5.03
elaps:  nlefsm            2       0.419       0.838    34.54
elaps:  DHSCF            24       0.026       0.621    25.60
elaps:  DHSCF1            1       0.013       0.013     0.54
elaps:  DHSCF2            1       0.031       0.031     1.28
elaps:  REORD           194       0.000       0.007     0.29
elaps:  POISON           25       0.004       0.103     4.25
elaps:  DHSCF3           24       0.023       0.544    22.42
elaps:  rhoofd           24       0.009       0.210     8.66
elaps:  cellXC           24       0.004       0.087     3.59
elaps:  vmat             24       0.005       0.117     4.82
elaps:  MolMec            2       0.000       0.000     0.00
elaps:  diagon           23       0.002       0.053     2.18
elaps:  r-eigvec         23       0.002       0.052     2.14
elaps:  r-buildHS        23       0.000       0.000     0.00
elaps:  rdiag            23       0.002       0.052     2.14
elaps:  rdiag1           23       0.000       0.003     0.12
elaps:  rdiag2           23       0.000       0.004     0.16
elaps:  rdiag3           23       0.002       0.041     1.69
elaps:  rdiag4           23       0.000       0.001     0.04
elaps:  r-buildD         23       0.000       0.000     0.00
elaps:  DHSCF4            1       0.032       0.032     1.32
elaps:  dfscf             1       0.028       0.028     1.15
elaps:  overfsm           1       0.001       0.001     0.04
elaps:  optical           1       0.000       0.000     0.00
  
>> End of run:  24-MAR-2013  18:27:50
