Siesta Version  : v4.1-b4-351
Architecture    : x86_64-linux-n-62-26-19
Compiler version: GNU Fortran (GCC) 9.3.0
Compiler flags  : mpifort -m64 -fPIC -O3 -march=native -ftree-vectorize -fexpensive-optimizatioons -funroll-loops -fprefetch-loop-arrays -fno-second-underscore  -flto
PP flags        : -I/dtu/sw/dcc/SL73/2020-aug/generic/build-tools/1.0/include -I/dtu/sw/dcc/SL773/2020-aug/generic/gcc/9.3.0/include -I/dtu/sw/dcc/SL73/2020-aug/generic/gcc/9.3.0/include -I/dtu/sw/dcc/SL73/2020-aug/XeonE5-2660v3/gnu/9.3.0/zlib/1.2.11/include -I/dtu/sw/dcc/SL73/2020-aug/generic/numactl/2.0.12/include -I/dtu/sw/dcc/SL73/2020-aug/XeonE5-2660v3/gnu/9.3.0/libxml2/2.9.10/include -I/dtu/sw/dcc/SL73/2020-aug/XeonE5-2660v3/gnu/9.3.0/hwloc/2.2.0/include -I/dtu/sw/dcc/SL73/2020-aug/XeonE5-2660v3/gnu/9.3.0/knem/1.1.4/include -I/dtu/sw/dcc/SL73/2020-aug/XeonE5-2660v3/gnu/9.3.0/ucx/1.8.1/include -I/dtu/sw/dcc/SL73/2020-aug/XeonE5-2660v3/gnu/9.3.0/openmpi/4.0.4/include -I/dtu/sw/dcc/SL73/2020-aug/XeonE5-2660v3/gnu/9.3.0/szip/2.1.1/include -I/dtu/sw/dcc/SL73/2020-aug/XeonE5-2660v3/gnu/9.3.0/hdf5/1.12.0/include -I/dtu/sw/dcc/SL73/2020-aug/XeonE5-2660v3/gnu/9.3.0/pnetcdf/1.12.1/include -I/dtu/sw/dcc/SL73/2020-aug/generic/gen-zlib/1.2.11/include -I/dtu/sw/dcc/SL73/2020-aug/generic/openssl/1.1.1/include -I/dtu/sw/dcc/SL73/2020-aug/generic/libssh2/1.8.2/include -I/dtu/sw/dcc/SL73/2020-aug/generic/curl/7.65.1/include -I/dtu/sw/dcc/SL73/2020-aug/XeonE5-2660v3/gnu/9.3.0/netcdf/4.7.4/include -I/dtu/sw/dcc/SL73/2020-aug/XeonE5-2660v3/gnu/9.3.0/flook/0.8.1/include -I/dtu/sw/dcc/SL73/2020-aug/XeonE5-2660v3/gnu/9.3.0/fftw/3.3.8/include -I/dtu/sw/dcc/SL73/2020-aug/XeonE5-2660v3/gnu/9.3.0/parmetis/4.0.3/include -I/dtu/sw/dcc/SL73/2020-aug/XeonE5-2660v3/gnu/9.3.0/scalapack/2.1.0/include -I/dtu/sw/dcc/SL73/2020-aug/XeonE5-2660v3/gnu/9.3.0/lapack/3.9.0/include -I/dtu/sw/dcc/SL73/2020-aug/XeonE5-2660v3/gnu/9.3.0/blis/0.7.0/include -I/dtu/sw/dcc/SL73/2020-aug/XeonE5-2660v3/gnu/9.3.0/scotch/6.0.9/include -I/dtu/sw/dcc/SL73/2020-aug/XeonE5-2660v3/gnu/9.3.0/mumps/5.3.3/include -I/dtu/sw/dcc/SL73/2020-aug/XeonE5-2660v3/gnu/9.3.0/elpa/2020.05.001/include -DSIESTA__ELPA -DMPI -DFC_HAVE_FLUSH -DFC_HAVE_ABORT -DCDF -DCDF4 -DSIESTA__FLOOK  -DNCDF -DNCDF_4 -DNCDF_PARALLEL -DTS_NOCHECKS -DSIESTA__METIS -DSIESTA__MUMPS -DSIESTA__MRRR -I/dtu/sw/dcc/SL73/2020-aug/XeonE5-2660v3/gnu/9.3.0/elpa/2020.05.001/include/elpa
Libraries       : libncdf.a libfdict.a -lnetcdff -lnetcdf -lpnetcdf -lhdf5_hl -lhdf5 -lz  -lzmuumps -lmumps_common -lesmumps -lscotch -lscotcherr -lpord -lparmetis -lmetis -lelpa -lscalapack -llapack -lblis  -L/dtu/sw/dcc/SL73/2020-aug/XeonE5-2660v3/gnu/9.3.0/flook/0.8.1/lib -Wl,-rpath=/dtu/sw/dcc/SL73/2020-aug/XeonE5-2660v3/gnu/9.3.0/flook/0.8.1/lib -lflookall -ldl  -flto -fuse-linker-plugin  -lmetis
PARALLEL version
NetCDF support
NetCDF-4 support
NetCDF-4 MPI-IO support
METIS ordering support
Lua support

* Running on 8 nodes in parallel
>> Start of run:  22-JAN-2021  22:11:12

                           ***********************       
                           *  WELCOME TO SIESTA  *       
                           ***********************       

reinit: Reading from ../force_constants.fdf

reinit: -----------------------------------------------------------------------
reinit: System Name: si54 Force constants
reinit: -----------------------------------------------------------------------
reinit: System Label: force_constants
reinit: -----------------------------------------------------------------------

initatom: Reading input for the pseudopotentials and atomic orbitals ----------
Species number:   1 Atomic number:   14 Label: Si

Ground state valence configuration:   3s02  3p02
Reading pseudopotential information in formatted form from Si.psf

Valence configuration for pseudopotential generation:
3s( 2.00) rc: 1.89
3p( 2.00) rc: 1.89
3d( 0.00) rc: 1.89
4f( 0.00) rc: 1.89
For Si, standard SIESTA heuristics set lmxkb to 2
 (one more than the basis l, including polarization orbitals).
Use PS.lmax or PS.KBprojectors blocks to override.

<basis_specs>
===============================================================================
Si                   Z=  14    Mass=  28.090        Charge= 0.17977+309
Lmxo=1 Lmxkb= 2    BasisType=split      Semic=F
L=0  Nsemic=0  Cnfigmx=3
          i=1  nzeta=1  polorb=0  (3s)
            splnorm:   0.15000    
               vcte:    0.0000    
               rinn:    0.0000    
               qcoe:    0.0000    
               qyuk:    0.0000    
               qwid:   0.10000E-01
                rcs:    0.0000    
            lambdas:    1.0000    
L=1  Nsemic=0  Cnfigmx=3
          i=1  nzeta=1  polorb=0  (3p)
            splnorm:   0.15000    
               vcte:    0.0000    
               rinn:    0.0000    
               qcoe:    0.0000    
               qyuk:    0.0000    
               qwid:   0.10000E-01
                rcs:    0.0000    
            lambdas:    1.0000    
-------------------------------------------------------------------------------
L=0  Nkbl=1  erefs: 0.17977+309
L=1  Nkbl=1  erefs: 0.17977+309
L=2  Nkbl=1  erefs: 0.17977+309
===============================================================================
</basis_specs>

atom: Called for Si                    (Z =  14)

read_vps: Pseudopotential generation method:
read_vps: ATM3      Troullier-Martins                       
Valence charge for ps generation:    4.00000

xc_check: Exchange-correlation functional:
xc_check: Ceperley-Alder
V l=0 = -2*Zval/r beyond r=  2.5494
V l=1 = -2*Zval/r beyond r=  2.5494
V l=2 = -2*Zval/r beyond r=  2.5494
All V_l potentials equal beyond r=  1.8652
This should be close to max(r_c) in ps generation
All pots = -2*Zval/r beyond r=  2.5494
Using large-core scheme for Vlocal

atom: Estimated core radius    2.54944

atom: Including non-local core corrections could be a good idea
atom: Maximum radius for 4*pi*r*r*local-pseudopot. charge    2.85303
atom: Maximum radius for r*vlocal+2*Zval:    2.58151
GHOST: No ghost state for L =  0
GHOST: No ghost state for L =  1
GHOST: No ghost state for L =  2

KBgen: Kleinman-Bylander projectors: 
   l= 0   rc=  1.936440   el= -0.796617   Ekb=  4.661340   kbcos=  0.299756
   l= 1   rc=  1.936440   el= -0.307040   Ekb=  1.494238   kbcos=  0.301471
   l= 2   rc=  1.936440   el=  0.002313   Ekb= -2.808672   kbcos= -0.054903

KBgen: Total number of  Kleinman-Bylander projectors:    9
atom: -------------------------------------------------------------------------

atom: SANKEY-TYPE ORBITALS:

SPLIT: Orbitals with angular momentum L= 0

SPLIT: Basis orbitals for state 3s

SPLIT: PAO cut-off radius determined from an
SPLIT: energy shift=  0.020000 Ry

   izeta = 1
                 lambda =    1.000000
                     rc =    5.007352
                 energy =   -0.777669
                kinetic =    0.573829
    potential(screened) =   -1.351499
       potential(ionic) =   -3.827441

SPLIT: Orbitals with angular momentum L= 1

SPLIT: Basis orbitals for state 3p

SPLIT: PAO cut-off radius determined from an
SPLIT: energy shift=  0.020000 Ry

   izeta = 1
                 lambda =    1.000000
                     rc =    6.270866
                 energy =   -0.288955
                kinetic =    0.877930
    potential(screened) =   -1.166885
       potential(ionic) =   -3.426998
atom: Total number of Sankey-type orbitals:  4

atm_pop: Valence configuration (for local Pseudopot. screening):
 3s( 2.00)                                                            
 3p( 2.00)                                                            
Vna: chval, zval:    4.00000   4.00000

Vna:  Cut-off radius for the neutral-atom potential:   6.270866

atom: _________________________________________________________________________

prinput: Basis input ----------------------------------------------------------

PAO.BasisType split     

%block ChemicalSpeciesLabel
    1   14 Si                      # Species index, atomic number, species label
%endblock ChemicalSpeciesLabel

%block PAO.Basis                 # Define Basis set
Si                    2                    # Species label, number of l-shells
 n=3   0   1                         # n, l, Nzeta 
   5.007   
   1.000   
 n=3   1   1                         # n, l, Nzeta 
   6.271   
   1.000   
%endblock PAO.Basis

prinput: ----------------------------------------------------------------------

Dumping basis to NetCDF file Si.ion.nc
coor:   Atomic-coordinates input format  =     Cartesian coordinates
coor:                                            (in Bohr units)

siesta: Atomic coordinates (Bohr) and species
siesta:     -8.97856  -8.97856  -8.97856  1        1
siesta:    -11.54387 -11.54387 -11.54387  1        2
siesta:     -3.84796  -3.84796  -8.97856  1        3
siesta:     -6.41326  -6.41326 -11.54387  1        4
siesta:      1.28265   1.28265  -8.97856  1        5
siesta:     -1.28265  -1.28265 -11.54387  1        6
siesta:     -3.84796  -8.97856  -3.84796  1        7
siesta:     -6.41326 -11.54387  -6.41326  1        8
siesta:      1.28265  -3.84796  -3.84796  1        9
siesta:     -1.28265  -6.41326  -6.41326  1       10
siesta:      6.41326   1.28265  -3.84796  1       11
siesta:      3.84796  -1.28265  -6.41326  1       12
siesta:      1.28265  -8.97856   1.28265  1       13
siesta:     -1.28265 -11.54387  -1.28265  1       14
siesta:      6.41326  -3.84796   1.28265  1       15
siesta:      3.84796  -6.41326  -1.28265  1       16
siesta:     11.54387   1.28265   1.28265  1       17
siesta:      8.97856  -1.28265  -1.28265  1       18
siesta:     -8.97856  -3.84796  -3.84796  1       19
siesta:    -11.54387  -6.41326  -6.41326  1       20
siesta:     -3.84796   1.28265  -3.84796  1       21
siesta:     -6.41326  -1.28265  -6.41326  1       22
siesta:      1.28265   6.41326  -3.84796  1       23
siesta:     -1.28265   3.84796  -6.41326  1       24
siesta:     -3.84796  -3.84796   1.28265  1       25
siesta:     -6.41326  -6.41326  -1.28265  1       26
siesta:      1.28265   1.28265   1.28265  1       27
siesta:     -1.28265  -1.28265  -1.28265  1       28
siesta:      6.41326   6.41326   1.28265  1       29
siesta:      3.84796   3.84796  -1.28265  1       30
siesta:      1.28265  -3.84796   6.41326  1       31
siesta:     -1.28265  -6.41326   3.84796  1       32
siesta:      6.41326   1.28265   6.41326  1       33
siesta:      3.84796  -1.28265   3.84796  1       34
siesta:     11.54387   6.41326   6.41326  1       35
siesta:      8.97856   3.84796   3.84796  1       36
siesta:     -8.97856   1.28265   1.28265  1       37
siesta:    -11.54387  -1.28265  -1.28265  1       38
siesta:     -3.84796   6.41326   1.28265  1       39
siesta:     -6.41326   3.84796  -1.28265  1       40
siesta:      1.28265  11.54387   1.28265  1       41
siesta:     -1.28265   8.97856  -1.28265  1       42
siesta:     -3.84796   1.28265   6.41326  1       43
siesta:     -6.41326  -1.28265   3.84796  1       44
siesta:      1.28265   6.41326   6.41326  1       45
siesta:     -1.28265   3.84796   3.84796  1       46
siesta:      6.41326  11.54387   6.41326  1       47
siesta:      3.84796   8.97856   3.84796  1       48
siesta:      1.28265   1.28265  11.54387  1       49
siesta:     -1.28265  -1.28265   8.97856  1       50
siesta:      6.41326   6.41326  11.54387  1       51
siesta:      3.84796   3.84796   8.97856  1       52
siesta:     11.54387  11.54387  11.54387  1       53
siesta:      8.97856   8.97856   8.97856  1       54

siesta: System type = bulk      

initatomlists: Number of atoms, orbitals, and projectors:     54   216   486

siesta: ******************** Simulation parameters ****************************
siesta:
siesta: The following are some of the parameters of the simulation.
siesta: A complete list of the parameters used, including default values,
siesta: can be found in file out.fdf
siesta:
redata: Spin configuration                          = none
redata: Number of spin components                   = 1
redata: Time-Reversal Symmetry                      = T
redata: Spin spiral                                 = F
redata: Long output                                 =   F
redata: Number of Atomic Species                    =        1
redata: Charge density info will appear in .RHO file
redata: Write Mulliken Pop.                         = NO
redata: Matel table size (NRTAB)                    =     1024
redata: Mesh Cutoff                                 =   130.0000 Ry
redata: Net charge of the system                    =     0.0000 |e|
redata: Min. number of SCF Iter                     =        0
redata: Max. number of SCF Iter                     =     1000
redata: SCF convergence failure will abort job
redata: SCF mix quantity                            = Hamiltonian
redata: Mix DM or H after convergence               =   F
redata: Recompute H after scf cycle                 =   F
redata: Mix DM in first SCF step                    =   T
redata: Write Pulay info on disk                    =   F
redata: New DM Occupancy tolerance                  = 0.000000000001
redata: No kicks to SCF
redata: DM Mixing Weight for Kicks                  =     0.5000
redata: Require Harris convergence for SCF          =   F
redata: Harris energy tolerance for SCF             =     0.000100 eV
redata: Require DM convergence for SCF              =   T
redata: DM tolerance for SCF                        =     0.000100
redata: Require EDM convergence for SCF             =   F
redata: EDM tolerance for SCF                       =     0.001000 eV
redata: Require H convergence for SCF               =   T
redata: Hamiltonian tolerance for SCF               =     0.001000 eV
redata: Require (free) Energy convergence for SCF   =   F
redata: (free) Energy tolerance for SCF             =     0.000100 eV
redata: Using Saved Data (generic)                  =   F
redata: Use continuation files for DM               =   F
redata: Neglect nonoverlap interactions             =   F
redata: Method of Calculation                       = Diagonalization
redata: Electronic Temperature                      =   299.9869 K
redata: Fix the spin of the system                  =   F
redata: Dynamics option                             = Force Constants Matrix Calculation
redata: Atomic displ for force constants            =     0.0212  Ang
redata: First atom to move                          =       27
redata: Last atom to move                           =       28
mix.SCF: Pulay mixing                            = Pulay
mix.SCF:    Variant                              = stable
mix.SCF:    History steps                        = 2
mix.SCF:    Linear mixing weight                 =     0.250000
mix.SCF:    Mixing weight                        =     0.250000
mix.SCF:    SVD condition                        = 0.1000E-07
redata: Save all siesta data in one NC              =   F
redata: ***********************************************************************

%block SCF.Mixers
  Pulay
%endblock SCF.Mixers

%block SCF.Mixer.Pulay
  # Mixing method
  method pulay
  variant stable

  # Mixing options
  weight 0.2500
  weight.linear 0.2500
  history 2
%endblock SCF.Mixer.Pulay

DM_history_depth set to one for 'Forces' run
Size of DM history Fstack: 1
Total number of electrons:   216.000000
Total ionic charge:   216.000000

* ProcessorY, Blocksize:    2  24


* Orbital distribution balance (max,min):    48    24

 Kpoints in:            1 . Kpoints trimmed:            1

siesta: k-grid: Number of k-points =     1
siesta: k-grid: Cutoff (effective) =     5.759 Ang
siesta: k-grid: Supercell and displacements
siesta: k-grid:    1   0   0      0.000
siesta: k-grid:    0   1   0      0.000
siesta: k-grid:    0   0   1      0.000

diag: Algorithm                                     = D&C
diag: Parallel over k                               =   F
diag: Use parallel 2D distribution                  =   T
diag: Parallel block-size                           = 24
diag: Parallel distribution                         =     2 x     4
diag: Used triangular part                          = Lower
diag: Absolute tolerance                            =  0.100E-15
diag: Orthogonalization factor                      =  0.100E-05
diag: Memory factor                                 =  1.0000


ts: **************************************************************
ts: Save H and S matrices                           =    F
ts: Save DM and EDM matrices                        =    F
ts: Only save the overlap matrix S                  =    F
ts: **************************************************************

************************ Begin: TS CHECKS AND WARNINGS ************************
************************ End: TS CHECKS AND WARNINGS **************************


                     ====================================
                        Begin FC step =      0
                        Undisplaced coordinates
                     ====================================

outcell: Unit cell vectors (Ang):
        0.000000    8.145000    8.145000
        8.145000    0.000000    8.145000
        8.145000    8.145000    0.000000

outcell: Cell vector modules (Ang)   :   11.518769   11.518769   11.518769
outcell: Cell angles (23,13,12) (deg):     60.0000     60.0000     60.0000
outcell: Cell volume (Ang**3)        :   1080.6953
Gamma-point calculation with multiply-connected orbital pairs
Folding of H and S implicitly performed
<dSpData1D:S at geom step 0
  <sparsity:sparsity for geom step 0
    nrows_g=216 nrows=48 sparsity=.1842 nnzs=8592, refcount: 7>
  <dData1D:(new from dSpData1D) n=8592, refcount: 1>
refcount: 1>
new_DM -- step:     1
Initializing Density Matrix...
DM filled with atomic data:
<dSpData2D:DM initialized from atoms
  <sparsity:sparsity for geom step 0
    nrows_g=216 nrows=48 sparsity=.1842 nnzs=8592, refcount: 8>
  <dData2D:DM n=8592 m=1, refcount: 1>
refcount: 1>
No. of atoms with KB's overlaping orbs in proc 0. Max # of overlaps:      48      56
New grid distribution:   1
           1       1:   36    1:   18    1:    9
           2       1:   36    1:   18   10:   18
           3       1:   36    1:   18   19:   27
           4       1:   36    1:   18   28:   36
           5       1:   36   19:   36    1:    9
           6       1:   36   19:   36   10:   18
           7       1:   36   19:   36   19:   27
           8       1:   36   19:   36   28:   36

InitMesh: MESH =    72 x    72 x    72 =      373248
InitMesh: (bp) =    36 x    36 x    36 =       46656
InitMesh: Mesh cutoff (required, used) =   130.000   161.974 Ry
ExtMesh (bp) on 0 =    88 x    70 x    61 =      375760
New grid distribution:   2
           1       1:   18   19:   36   19:   36
           2      19:   36    1:   18    1:   18
           3      19:   36    1:   18   19:   36
           4      19:   36   19:   36    1:   18
           5       1:   18    1:   18   19:   36
           6       1:   18    1:   18    1:   18
           7      19:   36   19:   36   19:   36
           8       1:   18   19:   36    1:   18
New grid distribution:   3
           1       1:   18   19:   36   19:   36
           2      19:   36    1:   18    1:   18
           3      19:   36    1:   18   19:   36
           4      19:   36   19:   36    1:   18
           5       1:   18    1:   18   19:   36
           6       1:   18    1:   18    1:   18
           7      19:   36   19:   36   19:   36
           8       1:   18   19:   36    1:   18
Setting up quadratic distribution...
ExtMesh (bp) on 0 =    70 x    70 x    70 =      343000
PhiOnMesh: Number of (b)points on node 0 =                 5832
PhiOnMesh: nlist on node 0 =               175422

stepf: Fermi-Dirac step function

siesta: Program's energy decomposition (eV):
siesta: Ebs     =     -2032.273582
siesta: Eions   =     10281.657338
siesta: Ena     =      3118.567169
siesta: Ekin    =      2165.104856
siesta: Enl     =       795.606624
siesta: Eso     =         0.000000
siesta: Edftu   =         0.000000
siesta: DEna    =       171.174009
siesta: DUscf   =         4.243482
siesta: DUext   =         0.000000
siesta: Exc     =     -1733.373668
siesta: eta*DQ  =         0.000000
siesta: Emadel  =         0.000000
siesta: Emeta   =         0.000000
siesta: Emolmec =         0.000000
siesta: Ekinion =         0.000000
siesta: Eharris =     -5714.292932
siesta: Etot    =     -5760.334865
siesta: FreeEng =     -5760.334865

        iscf     Eharris(eV)        E_KS(eV)     FreeEng(eV)     dDmax    Ef(eV) dHmax(eV)
   scf:    1    -5714.292932    -5760.334865    -5760.334865  1.059801 -3.182806  0.160472
timer: Routine,Calls,Time,% = IterSCF        1       0.270  36.26
   scf:    2    -5760.361485    -5760.348217    -5760.348217  0.003399 -3.224153  0.118223
   scf:    3    -5760.379722    -5760.364300    -5760.364300  0.009564 -3.163121  0.000416
   scf:    4    -5760.364302    -5760.364301    -5760.364301  0.000034 -3.163237  0.000318

SCF Convergence by DM+H criterion
max |DM_out - DM_in|         :     0.0000335436
max |H_out - H_in|      (eV) :     0.0003179391
SCF cycle converged after 4 iterations

Using DM_out to compute the final energy and forces
No. of atoms with KB's overlaping orbs in proc 0. Max # of overlaps:      48      56

siesta: E_KS(eV) =            -5760.3643

siesta: E_KS - E_eggbox =     -5760.3643

siesta: Atomic forces (eV/Ang):
----------------------------------------
   Tot   -0.000000    0.000000   -0.000000
----------------------------------------
   Max    0.000000
   Res    0.000000    sqrt( Sum f_i^2 / 3N )
----------------------------------------
   Max    0.000000    constrained

Stress tensor Voigt[x,y,z,yz,xz,xy] (kbar):      -74.61      -74.61      -74.61       -0.00       -0.00       -0.00
(Free)E + p*V (eV/cell)    -5710.0365
Target enthalpy (eV/cell)    -5760.3643

                     ====================================
                        Begin FC step =      1
                         displace atom 27
                         in direction 1 by -0.021167 Ang
                     ====================================

outcell: Unit cell vectors (Ang):
        0.000000    8.145000    8.145000
        8.145000    0.000000    8.145000
        8.145000    8.145000    0.000000

outcell: Cell vector modules (Ang)   :   11.518769   11.518769   11.518769
outcell: Cell angles (23,13,12) (deg):     60.0000     60.0000     60.0000
outcell: Cell volume (Ang**3)        :   1080.6953
Gamma-point calculation with multiply-connected orbital pairs
Folding of H and S implicitly performed
<dSpData1D:S at geom step 1
  <sparsity:sparsity for geom step 1
    nrows_g=216 nrows=48 sparsity=.1842 nnzs=8592, refcount: 7>
  <dData1D:(new from dSpData1D) n=8592, refcount: 1>
refcount: 1>
new_DM -- step:     2
Re-using DM from previous geometries...
Number of DMs in history: 1
 DM extrapolation coefficients: 
1   1.00000
New DM after history re-use:
<dSpData2D:SpM extrapolated using coords
  <sparsity:sparsity for geom step 1
    nrows_g=216 nrows=48 sparsity=.1842 nnzs=8592, refcount: 9>
  <dData2D:(temp array for extrapolation) n=8592 m=1, refcount: 1>
refcount: 1>
No. of atoms with KB's overlaping orbs in proc 0. Max # of overlaps:      48      56
New grid distribution:   1
           1       1:   36    1:   18    1:    9
           2       1:   36    1:   18   10:   18
           3       1:   36    1:   18   19:   27
           4       1:   36    1:   18   28:   36
           5       1:   36   19:   36    1:    9
           6       1:   36   19:   36   10:   18
           7       1:   36   19:   36   19:   27
           8       1:   36   19:   36   28:   36

InitMesh: MESH =    72 x    72 x    72 =      373248
InitMesh: (bp) =    36 x    36 x    36 =       46656
InitMesh: Mesh cutoff (required, used) =   130.000   161.974 Ry
ExtMesh (bp) on 0 =    88 x    70 x    61 =      375760
New grid distribution:   2
           1       1:   18   19:   36   19:   36
           2      19:   36    1:   18    1:   18
           3      19:   36    1:   18   19:   36
           4      19:   36   19:   36    1:   18
           5       1:   18    1:   18   19:   36
           6       1:   18    1:   18    1:   18
           7      19:   36   19:   36   19:   36
           8       1:   18   19:   36    1:   18
New grid distribution:   3
           1       1:   18   19:   36   19:   36
           2      19:   36    1:   18    1:   18
           3      19:   36    1:   18   19:   36
           4      19:   36   19:   36    1:   18
           5       1:   18    1:   18   19:   36
           6       1:   18    1:   18    1:   18
           7      19:   36   19:   36   19:   36
           8       1:   18   19:   36    1:   18
Setting up quadratic distribution...
ExtMesh (bp) on 0 =    70 x    70 x    70 =      343000
PhiOnMesh: Number of (b)points on node 0 =                 5832
PhiOnMesh: nlist on node 0 =               175459

        iscf     Eharris(eV)        E_KS(eV)     FreeEng(eV)     dDmax    Ef(eV) dHmax(eV)
   scf:    1    -5760.356241    -5760.360298    -5760.360298  0.003319 -3.158665  0.037457
   scf:    2    -5760.358119    -5760.359805    -5760.359805  0.005438 -3.157630  0.067447
   scf:    3    -5760.360801    -5760.360574    -5760.360574  0.003452 -3.158417  0.007816
   scf:    4    -5760.360585    -5760.360580    -5760.360580  0.000158 -3.158418  0.004717
   scf:    5    -5760.360585    -5760.360583    -5760.360583  0.000167 -3.158432  0.000778
   scf:    6    -5760.360583    -5760.360583    -5760.360583  0.000028 -3.158444  0.000390

SCF Convergence by DM+H criterion
max |DM_out - DM_in|         :     0.0000276267
max |H_out - H_in|      (eV) :     0.0003903681
SCF cycle converged after 6 iterations

Using DM_out to compute the final energy and forces
No. of atoms with KB's overlaping orbs in proc 0. Max # of overlaps:      48      56

siesta: E_KS(eV) =            -5760.3606

siesta: Atomic forces (eV/Ang):
----------------------------------------
   Tot    0.004518   -0.000000   -0.000000
----------------------------------------
   Max    0.384297
   Res    0.037690    sqrt( Sum f_i^2 / 3N )
----------------------------------------
   Max    0.384297    constrained

Stress tensor Voigt[x,y,z,yz,xz,xy] (kbar):      -74.65      -74.66      -74.66       -0.55       -0.00       -0.00
(Free)E + p*V (eV/cell)    -5710.0013
Target enthalpy (eV/cell)    -5760.3606

                     ====================================
                        Begin FC step =      2
                         displace atom 27
                         in direction 1 by  0.021167 Ang
                     ====================================

outcell: Unit cell vectors (Ang):
        0.000000    8.145000    8.145000
        8.145000    0.000000    8.145000
        8.145000    8.145000    0.000000

outcell: Cell vector modules (Ang)   :   11.518769   11.518769   11.518769
outcell: Cell angles (23,13,12) (deg):     60.0000     60.0000     60.0000
outcell: Cell volume (Ang**3)        :   1080.6953
Gamma-point calculation with multiply-connected orbital pairs
Folding of H and S implicitly performed
<dSpData1D:S at geom step 2
  <sparsity:sparsity for geom step 2
    nrows_g=216 nrows=48 sparsity=.1842 nnzs=8592, refcount: 7>
  <dData1D:(new from dSpData1D) n=8592, refcount: 1>
refcount: 1>
new_DM -- step:     3
Re-using DM from previous geometries...
Number of DMs in history: 1
 DM extrapolation coefficients: 
1   1.00000
New DM after history re-use:
<dSpData2D:SpM extrapolated using coords
  <sparsity:sparsity for geom step 2
    nrows_g=216 nrows=48 sparsity=.1842 nnzs=8592, refcount: 9>
  <dData2D:(temp array for extrapolation) n=8592 m=1, refcount: 1>
refcount: 1>
No. of atoms with KB's overlaping orbs in proc 0. Max # of overlaps:      48      56
New grid distribution:   1
           1       1:   36    1:   18    1:    9
           2       1:   36    1:   18   10:   18
           3       1:   36    1:   18   19:   27
           4       1:   36    1:   18   28:   36
           5       1:   36   19:   36    1:    9
           6       1:   36   19:   36   10:   18
           7       1:   36   19:   36   19:   27
           8       1:   36   19:   36   28:   36

InitMesh: MESH =    72 x    72 x    72 =      373248
InitMesh: (bp) =    36 x    36 x    36 =       46656
InitMesh: Mesh cutoff (required, used) =   130.000   161.974 Ry
ExtMesh (bp) on 0 =    88 x    70 x    61 =      375760
New grid distribution:   2
           1       1:   18   19:   36   19:   36
           2      19:   36    1:   18    1:   18
           3      19:   36    1:   18   19:   36
           4      19:   36   19:   36    1:   18
           5       1:   18    1:   18   19:   36
           6       1:   18    1:   18    1:   18
           7      19:   36   19:   36   19:   36
           8       1:   18   19:   36    1:   18
New grid distribution:   3
           1       1:   18   19:   36   19:   36
           2      19:   36    1:   18    1:   18
           3      19:   36    1:   18   19:   36
           4      19:   36   19:   36    1:   18
           5       1:   18    1:   18   19:   36
           6       1:   18    1:   18    1:   18
           7      19:   36   19:   36   19:   36
           8       1:   18   19:   36    1:   18
Setting up quadratic distribution...
ExtMesh (bp) on 0 =    70 x    70 x    70 =      343000
PhiOnMesh: Number of (b)points on node 0 =                 5832
PhiOnMesh: nlist on node 0 =               175365

        iscf     Eharris(eV)        E_KS(eV)     FreeEng(eV)     dDmax    Ef(eV) dHmax(eV)
   scf:    1    -5760.356241    -5760.360298    -5760.360298  0.003319 -3.158665  0.037457
   scf:    2    -5760.358119    -5760.359805    -5760.359805  0.005438 -3.157630  0.067447
   scf:    3    -5760.360801    -5760.360574    -5760.360574  0.003452 -3.158417  0.007816
   scf:    4    -5760.360585    -5760.360580    -5760.360580  0.000158 -3.158418  0.004717
   scf:    5    -5760.360585    -5760.360583    -5760.360583  0.000167 -3.158432  0.000778
   scf:    6    -5760.360583    -5760.360583    -5760.360583  0.000028 -3.158444  0.000390

SCF Convergence by DM+H criterion
max |DM_out - DM_in|         :     0.0000276267
max |H_out - H_in|      (eV) :     0.0003903681
SCF cycle converged after 6 iterations

Using DM_out to compute the final energy and forces
No. of atoms with KB's overlaping orbs in proc 0. Max # of overlaps:      48      56

siesta: E_KS(eV) =            -5760.3606

siesta: Atomic forces (eV/Ang):
----------------------------------------
   Tot   -0.004518    0.000000    0.000000
----------------------------------------
   Max    0.384297
   Res    0.037690    sqrt( Sum f_i^2 / 3N )
----------------------------------------
   Max    0.384297    constrained

Stress tensor Voigt[x,y,z,yz,xz,xy] (kbar):      -74.65      -74.66      -74.66        0.55       -0.00       -0.00
(Free)E + p*V (eV/cell)    -5710.0013
Target enthalpy (eV/cell)    -5760.3606

                     ====================================
                        Begin FC step =      3
                         displace atom 27
                         in direction 2 by -0.021167 Ang
                     ====================================

outcell: Unit cell vectors (Ang):
        0.000000    8.145000    8.145000
        8.145000    0.000000    8.145000
        8.145000    8.145000    0.000000

outcell: Cell vector modules (Ang)   :   11.518769   11.518769   11.518769
outcell: Cell angles (23,13,12) (deg):     60.0000     60.0000     60.0000
outcell: Cell volume (Ang**3)        :   1080.6953
Gamma-point calculation with multiply-connected orbital pairs
Folding of H and S implicitly performed
<dSpData1D:S at geom step 3
  <sparsity:sparsity for geom step 3
    nrows_g=216 nrows=48 sparsity=.1842 nnzs=8592, refcount: 7>
  <dData1D:(new from dSpData1D) n=8592, refcount: 1>
refcount: 1>
new_DM -- step:     4
Re-using DM from previous geometries...
Number of DMs in history: 1
 DM extrapolation coefficients: 
1   1.00000
New DM after history re-use:
<dSpData2D:SpM extrapolated using coords
  <sparsity:sparsity for geom step 3
    nrows_g=216 nrows=48 sparsity=.1842 nnzs=8592, refcount: 9>
  <dData2D:(temp array for extrapolation) n=8592 m=1, refcount: 1>
refcount: 1>
No. of atoms with KB's overlaping orbs in proc 0. Max # of overlaps:      48      56
New grid distribution:   1
           1       1:   36    1:   18    1:    9
           2       1:   36    1:   18   10:   18
           3       1:   36    1:   18   19:   27
           4       1:   36    1:   18   28:   36
           5       1:   36   19:   36    1:    9
           6       1:   36   19:   36   10:   18
           7       1:   36   19:   36   19:   27
           8       1:   36   19:   36   28:   36

InitMesh: MESH =    72 x    72 x    72 =      373248
InitMesh: (bp) =    36 x    36 x    36 =       46656
InitMesh: Mesh cutoff (required, used) =   130.000   161.974 Ry
ExtMesh (bp) on 0 =    88 x    70 x    61 =      375760
New grid distribution:   2
           1       1:   18   19:   36   19:   36
           2      19:   36    1:   18    1:   18
           3      19:   36    1:   18   19:   36
           4      19:   36   19:   36    1:   18
           5       1:   18    1:   18   19:   36
           6       1:   18    1:   18    1:   18
           7      19:   36   19:   36   19:   36
           8       1:   18   19:   36    1:   18
New grid distribution:   3
           1       1:   18   19:   36   19:   36
           2      19:   36    1:   18    1:   18
           3      19:   36    1:   18   19:   36
           4      19:   36   19:   36    1:   18
           5       1:   18    1:   18   19:   36
           6       1:   18    1:   18    1:   18
           7      19:   36   19:   36   19:   36
           8       1:   18   19:   36    1:   18
Setting up quadratic distribution...
ExtMesh (bp) on 0 =    70 x    70 x    70 =      343000
PhiOnMesh: Number of (b)points on node 0 =                 5832
PhiOnMesh: nlist on node 0 =               175407

        iscf     Eharris(eV)        E_KS(eV)     FreeEng(eV)     dDmax    Ef(eV) dHmax(eV)
   scf:    1    -5760.356241    -5760.360298    -5760.360298  0.003319 -3.158665  0.037457
   scf:    2    -5760.358119    -5760.359805    -5760.359805  0.005438 -3.157630  0.067447
   scf:    3    -5760.360801    -5760.360574    -5760.360574  0.003452 -3.158417  0.007816
   scf:    4    -5760.360585    -5760.360580    -5760.360580  0.000158 -3.158418  0.004717
   scf:    5    -5760.360585    -5760.360583    -5760.360583  0.000167 -3.158432  0.000778
   scf:    6    -5760.360583    -5760.360583    -5760.360583  0.000028 -3.158444  0.000390

SCF Convergence by DM+H criterion
max |DM_out - DM_in|         :     0.0000276267
max |H_out - H_in|      (eV) :     0.0003903681
SCF cycle converged after 6 iterations

Using DM_out to compute the final energy and forces
No. of atoms with KB's overlaping orbs in proc 0. Max # of overlaps:      48      56

siesta: E_KS(eV) =            -5760.3606

siesta: Atomic forces (eV/Ang):
----------------------------------------
   Tot   -0.000000    0.004518   -0.000000
----------------------------------------
   Max    0.384297
   Res    0.037690    sqrt( Sum f_i^2 / 3N )
----------------------------------------
   Max    0.384297    constrained

Stress tensor Voigt[x,y,z,yz,xz,xy] (kbar):      -74.66      -74.65      -74.66       -0.00       -0.55       -0.00
(Free)E + p*V (eV/cell)    -5710.0013
Target enthalpy (eV/cell)    -5760.3606

                     ====================================
                        Begin FC step =      4
                         displace atom 27
                         in direction 2 by  0.021167 Ang
                     ====================================

outcell: Unit cell vectors (Ang):
        0.000000    8.145000    8.145000
        8.145000    0.000000    8.145000
        8.145000    8.145000    0.000000

outcell: Cell vector modules (Ang)   :   11.518769   11.518769   11.518769
outcell: Cell angles (23,13,12) (deg):     60.0000     60.0000     60.0000
outcell: Cell volume (Ang**3)        :   1080.6953
Gamma-point calculation with multiply-connected orbital pairs
Folding of H and S implicitly performed
<dSpData1D:S at geom step 4
  <sparsity:sparsity for geom step 4
    nrows_g=216 nrows=48 sparsity=.1842 nnzs=8592, refcount: 7>
  <dData1D:(new from dSpData1D) n=8592, refcount: 1>
refcount: 1>
new_DM -- step:     5
Re-using DM from previous geometries...
Number of DMs in history: 1
 DM extrapolation coefficients: 
1   1.00000
New DM after history re-use:
<dSpData2D:SpM extrapolated using coords
  <sparsity:sparsity for geom step 4
    nrows_g=216 nrows=48 sparsity=.1842 nnzs=8592, refcount: 9>
  <dData2D:(temp array for extrapolation) n=8592 m=1, refcount: 1>
refcount: 1>
No. of atoms with KB's overlaping orbs in proc 0. Max # of overlaps:      48      56
New grid distribution:   1
           1       1:   36    1:   18    1:    9
           2       1:   36    1:   18   10:   18
           3       1:   36    1:   18   19:   27
           4       1:   36    1:   18   28:   36
           5       1:   36   19:   36    1:    9
           6       1:   36   19:   36   10:   18
           7       1:   36   19:   36   19:   27
           8       1:   36   19:   36   28:   36

InitMesh: MESH =    72 x    72 x    72 =      373248
InitMesh: (bp) =    36 x    36 x    36 =       46656
InitMesh: Mesh cutoff (required, used) =   130.000   161.974 Ry
ExtMesh (bp) on 0 =    88 x    70 x    61 =      375760
New grid distribution:   2
           1       1:   18   19:   36   19:   36
           2      19:   36    1:   18    1:   18
           3      19:   36    1:   18   19:   36
           4      19:   36   19:   36    1:   18
           5       1:   18    1:   18   19:   36
           6       1:   18    1:   18    1:   18
           7      19:   36   19:   36   19:   36
           8       1:   18   19:   36    1:   18
New grid distribution:   3
           1       1:   18   19:   36   19:   36
           2      19:   36    1:   18    1:   18
           3      19:   36    1:   18   19:   36
           4      19:   36   19:   36    1:   18
           5       1:   18    1:   18   19:   36
           6       1:   18    1:   18    1:   18
           7      19:   36   19:   36   19:   36
           8       1:   18   19:   36    1:   18
Setting up quadratic distribution...
ExtMesh (bp) on 0 =    70 x    70 x    70 =      343000
PhiOnMesh: Number of (b)points on node 0 =                 5832
PhiOnMesh: nlist on node 0 =               175419

        iscf     Eharris(eV)        E_KS(eV)     FreeEng(eV)     dDmax    Ef(eV) dHmax(eV)
   scf:    1    -5760.356241    -5760.360298    -5760.360298  0.003319 -3.158665  0.037457
   scf:    2    -5760.358119    -5760.359805    -5760.359805  0.005438 -3.157630  0.067447
   scf:    3    -5760.360801    -5760.360574    -5760.360574  0.003452 -3.158417  0.007816
   scf:    4    -5760.360585    -5760.360580    -5760.360580  0.000158 -3.158418  0.004717
   scf:    5    -5760.360585    -5760.360583    -5760.360583  0.000167 -3.158432  0.000778
   scf:    6    -5760.360583    -5760.360583    -5760.360583  0.000028 -3.158444  0.000390

SCF Convergence by DM+H criterion
max |DM_out - DM_in|         :     0.0000276267
max |H_out - H_in|      (eV) :     0.0003903681
SCF cycle converged after 6 iterations

Using DM_out to compute the final energy and forces
No. of atoms with KB's overlaping orbs in proc 0. Max # of overlaps:      48      56

siesta: E_KS(eV) =            -5760.3606

siesta: Atomic forces (eV/Ang):
----------------------------------------
   Tot    0.000000   -0.004518    0.000000
----------------------------------------
   Max    0.384297
   Res    0.037690    sqrt( Sum f_i^2 / 3N )
----------------------------------------
   Max    0.384297    constrained

Stress tensor Voigt[x,y,z,yz,xz,xy] (kbar):      -74.66      -74.65      -74.66       -0.00        0.55       -0.00
(Free)E + p*V (eV/cell)    -5710.0013
Target enthalpy (eV/cell)    -5760.3606

                     ====================================
                        Begin FC step =      5
                         displace atom 27
                         in direction 3 by -0.021167 Ang
                     ====================================

outcell: Unit cell vectors (Ang):
        0.000000    8.145000    8.145000
        8.145000    0.000000    8.145000
        8.145000    8.145000    0.000000

outcell: Cell vector modules (Ang)   :   11.518769   11.518769   11.518769
outcell: Cell angles (23,13,12) (deg):     60.0000     60.0000     60.0000
outcell: Cell volume (Ang**3)        :   1080.6953
Gamma-point calculation with multiply-connected orbital pairs
Folding of H and S implicitly performed
<dSpData1D:S at geom step 5
  <sparsity:sparsity for geom step 5
    nrows_g=216 nrows=48 sparsity=.1842 nnzs=8592, refcount: 7>
  <dData1D:(new from dSpData1D) n=8592, refcount: 1>
refcount: 1>
new_DM -- step:     6
Re-using DM from previous geometries...
Number of DMs in history: 1
 DM extrapolation coefficients: 
1   1.00000
New DM after history re-use:
<dSpData2D:SpM extrapolated using coords
  <sparsity:sparsity for geom step 5
    nrows_g=216 nrows=48 sparsity=.1842 nnzs=8592, refcount: 9>
  <dData2D:(temp array for extrapolation) n=8592 m=1, refcount: 1>
refcount: 1>
No. of atoms with KB's overlaping orbs in proc 0. Max # of overlaps:      48      56
New grid distribution:   1
           1       1:   36    1:   18    1:    9
           2       1:   36    1:   18   10:   18
           3       1:   36    1:   18   19:   27
           4       1:   36    1:   18   28:   36
           5       1:   36   19:   36    1:    9
           6       1:   36   19:   36   10:   18
           7       1:   36   19:   36   19:   27
           8       1:   36   19:   36   28:   36

InitMesh: MESH =    72 x    72 x    72 =      373248
InitMesh: (bp) =    36 x    36 x    36 =       46656
InitMesh: Mesh cutoff (required, used) =   130.000   161.974 Ry
ExtMesh (bp) on 0 =    88 x    70 x    61 =      375760
New grid distribution:   2
           1       1:   18   19:   36   19:   36
           2      19:   36    1:   18    1:   18
           3      19:   36    1:   18   19:   36
           4      19:   36   19:   36    1:   18
           5       1:   18    1:   18   19:   36
           6       1:   18    1:   18    1:   18
           7      19:   36   19:   36   19:   36
           8       1:   18   19:   36    1:   18
New grid distribution:   3
           1       1:   18   19:   36   19:   36
           2      19:   36    1:   18    1:   18
           3      19:   36    1:   18   19:   36
           4      19:   36   19:   36    1:   18
           5       1:   18    1:   18   19:   36
           6       1:   18    1:   18    1:   18
           7      19:   36   19:   36   19:   36
           8       1:   18   19:   36    1:   18
Setting up quadratic distribution...
ExtMesh (bp) on 0 =    70 x    70 x    70 =      343000
PhiOnMesh: Number of (b)points on node 0 =                 5832
PhiOnMesh: nlist on node 0 =               175407

        iscf     Eharris(eV)        E_KS(eV)     FreeEng(eV)     dDmax    Ef(eV) dHmax(eV)
   scf:    1    -5760.356241    -5760.360298    -5760.360298  0.003319 -3.158665  0.037457
   scf:    2    -5760.358119    -5760.359805    -5760.359805  0.005438 -3.157630  0.067447
   scf:    3    -5760.360801    -5760.360574    -5760.360574  0.003452 -3.158417  0.007816
   scf:    4    -5760.360585    -5760.360580    -5760.360580  0.000158 -3.158418  0.004717
   scf:    5    -5760.360585    -5760.360583    -5760.360583  0.000167 -3.158432  0.000778
   scf:    6    -5760.360583    -5760.360583    -5760.360583  0.000028 -3.158444  0.000390

SCF Convergence by DM+H criterion
max |DM_out - DM_in|         :     0.0000276267
max |H_out - H_in|      (eV) :     0.0003903681
SCF cycle converged after 6 iterations

Using DM_out to compute the final energy and forces
No. of atoms with KB's overlaping orbs in proc 0. Max # of overlaps:      48      56

siesta: E_KS(eV) =            -5760.3606

siesta: Atomic forces (eV/Ang):
----------------------------------------
   Tot   -0.000000   -0.000000    0.004518
----------------------------------------
   Max    0.384297
   Res    0.037690    sqrt( Sum f_i^2 / 3N )
----------------------------------------
   Max    0.384297    constrained

Stress tensor Voigt[x,y,z,yz,xz,xy] (kbar):      -74.66      -74.66      -74.65       -0.00       -0.00       -0.55
(Free)E + p*V (eV/cell)    -5710.0013
Target enthalpy (eV/cell)    -5760.3606

                     ====================================
                        Begin FC step =      6
                         displace atom 27
                         in direction 3 by  0.021167 Ang
                     ====================================

outcell: Unit cell vectors (Ang):
        0.000000    8.145000    8.145000
        8.145000    0.000000    8.145000
        8.145000    8.145000    0.000000

outcell: Cell vector modules (Ang)   :   11.518769   11.518769   11.518769
outcell: Cell angles (23,13,12) (deg):     60.0000     60.0000     60.0000
outcell: Cell volume (Ang**3)        :   1080.6953
Gamma-point calculation with multiply-connected orbital pairs
Folding of H and S implicitly performed
<dSpData1D:S at geom step 6
  <sparsity:sparsity for geom step 6
    nrows_g=216 nrows=48 sparsity=.1842 nnzs=8592, refcount: 7>
  <dData1D:(new from dSpData1D) n=8592, refcount: 1>
refcount: 1>
new_DM -- step:     7
Re-using DM from previous geometries...
Number of DMs in history: 1
 DM extrapolation coefficients: 
1   1.00000
New DM after history re-use:
<dSpData2D:SpM extrapolated using coords
  <sparsity:sparsity for geom step 6
    nrows_g=216 nrows=48 sparsity=.1842 nnzs=8592, refcount: 9>
  <dData2D:(temp array for extrapolation) n=8592 m=1, refcount: 1>
refcount: 1>
No. of atoms with KB's overlaping orbs in proc 0. Max # of overlaps:      48      56
New grid distribution:   1
           1       1:   36    1:   18    1:    9
           2       1:   36    1:   18   10:   18
           3       1:   36    1:   18   19:   27
           4       1:   36    1:   18   28:   36
           5       1:   36   19:   36    1:    9
           6       1:   36   19:   36   10:   18
           7       1:   36   19:   36   19:   27
           8       1:   36   19:   36   28:   36

InitMesh: MESH =    72 x    72 x    72 =      373248
InitMesh: (bp) =    36 x    36 x    36 =       46656
InitMesh: Mesh cutoff (required, used) =   130.000   161.974 Ry
ExtMesh (bp) on 0 =    88 x    70 x    61 =      375760
New grid distribution:   2
           1       1:   18   19:   36   19:   36
           2      19:   36    1:   18    1:   18
           3      19:   36    1:   18   19:   36
           4      19:   36   19:   36    1:   18
           5       1:   18    1:   18   19:   36
           6       1:   18    1:   18    1:   18
           7      19:   36   19:   36   19:   36
           8       1:   18   19:   36    1:   18
New grid distribution:   3
           1       1:   18   19:   36   19:   36
           2      19:   36    1:   18    1:   18
           3      19:   36    1:   18   19:   36
           4      19:   36   19:   36    1:   18
           5       1:   18    1:   18   19:   36
           6       1:   18    1:   18    1:   18
           7      19:   36   19:   36   19:   36
           8       1:   18   19:   36    1:   18
Setting up quadratic distribution...
ExtMesh (bp) on 0 =    70 x    70 x    70 =      343000
PhiOnMesh: Number of (b)points on node 0 =                 5832
PhiOnMesh: nlist on node 0 =               175419

        iscf     Eharris(eV)        E_KS(eV)     FreeEng(eV)     dDmax    Ef(eV) dHmax(eV)
   scf:    1    -5760.356241    -5760.360298    -5760.360298  0.003319 -3.158665  0.037457
   scf:    2    -5760.358119    -5760.359805    -5760.359805  0.005438 -3.157630  0.067447
   scf:    3    -5760.360801    -5760.360574    -5760.360574  0.003452 -3.158417  0.007816
   scf:    4    -5760.360585    -5760.360580    -5760.360580  0.000158 -3.158418  0.004717
   scf:    5    -5760.360585    -5760.360583    -5760.360583  0.000167 -3.158432  0.000778
   scf:    6    -5760.360583    -5760.360583    -5760.360583  0.000028 -3.158444  0.000390

SCF Convergence by DM+H criterion
max |DM_out - DM_in|         :     0.0000276267
max |H_out - H_in|      (eV) :     0.0003903681
SCF cycle converged after 6 iterations

Using DM_out to compute the final energy and forces
No. of atoms with KB's overlaping orbs in proc 0. Max # of overlaps:      48      56

siesta: E_KS(eV) =            -5760.3606

siesta: Atomic forces (eV/Ang):
----------------------------------------
   Tot    0.000000    0.000000   -0.004518
----------------------------------------
   Max    0.384297
   Res    0.037690    sqrt( Sum f_i^2 / 3N )
----------------------------------------
   Max    0.384297    constrained

Stress tensor Voigt[x,y,z,yz,xz,xy] (kbar):      -74.66      -74.66      -74.65       -0.00       -0.00        0.55
(Free)E + p*V (eV/cell)    -5710.0013
Target enthalpy (eV/cell)    -5760.3606

                     ====================================
                        Begin FC step =      7
                         displace atom 28
                         in direction 1 by -0.021167 Ang
                     ====================================

outcell: Unit cell vectors (Ang):
        0.000000    8.145000    8.145000
        8.145000    0.000000    8.145000
        8.145000    8.145000    0.000000

outcell: Cell vector modules (Ang)   :   11.518769   11.518769   11.518769
outcell: Cell angles (23,13,12) (deg):     60.0000     60.0000     60.0000
outcell: Cell volume (Ang**3)        :   1080.6953
Gamma-point calculation with multiply-connected orbital pairs
Folding of H and S implicitly performed
<dSpData1D:S at geom step 7
  <sparsity:sparsity for geom step 7
    nrows_g=216 nrows=48 sparsity=.1842 nnzs=8592, refcount: 7>
  <dData1D:(new from dSpData1D) n=8592, refcount: 1>
refcount: 1>
new_DM -- step:     8
Re-using DM from previous geometries...
Number of DMs in history: 1
 DM extrapolation coefficients: 
1   1.00000
New DM after history re-use:
<dSpData2D:SpM extrapolated using coords
  <sparsity:sparsity for geom step 7
    nrows_g=216 nrows=48 sparsity=.1842 nnzs=8592, refcount: 9>
  <dData2D:(temp array for extrapolation) n=8592 m=1, refcount: 1>
refcount: 1>
No. of atoms with KB's overlaping orbs in proc 0. Max # of overlaps:      48      56
New grid distribution:   1
           1       1:   36    1:   18    1:    9
           2       1:   36    1:   18   10:   18
           3       1:   36    1:   18   19:   27
           4       1:   36    1:   18   28:   36
           5       1:   36   19:   36    1:    9
           6       1:   36   19:   36   10:   18
           7       1:   36   19:   36   19:   27
           8       1:   36   19:   36   28:   36

InitMesh: MESH =    72 x    72 x    72 =      373248
InitMesh: (bp) =    36 x    36 x    36 =       46656
InitMesh: Mesh cutoff (required, used) =   130.000   161.974 Ry
ExtMesh (bp) on 0 =    88 x    70 x    61 =      375760
New grid distribution:   2
           1       1:   18   19:   36   19:   36
           2      19:   36    1:   18    1:   18
           3      19:   36    1:   18   19:   36
           4      19:   36   19:   36    1:   18
           5       1:   18    1:   18   19:   36
           6       1:   18    1:   18    1:   18
           7      19:   36   19:   36   19:   36
           8       1:   18   19:   36    1:   18
New grid distribution:   3
           1       1:   18   19:   36   19:   36
           2      19:   36    1:   18    1:   18
           3      19:   36    1:   18   19:   36
           4      19:   36   19:   36    1:   18
           5       1:   18    1:   18   19:   36
           6       1:   18    1:   18    1:   18
           7      19:   36   19:   36   19:   36
           8       1:   18   19:   36    1:   18
Setting up quadratic distribution...
ExtMesh (bp) on 0 =    70 x    70 x    70 =      343000
PhiOnMesh: Number of (b)points on node 0 =                 5832
PhiOnMesh: nlist on node 0 =               175480

        iscf     Eharris(eV)        E_KS(eV)     FreeEng(eV)     dDmax    Ef(eV) dHmax(eV)
   scf:    1    -5760.356241    -5760.360298    -5760.360298  0.003319 -3.158665  0.037457
   scf:    2    -5760.358119    -5760.359805    -5760.359805  0.005438 -3.157630  0.067447
   scf:    3    -5760.360801    -5760.360574    -5760.360574  0.003452 -3.158417  0.007816
   scf:    4    -5760.360585    -5760.360580    -5760.360580  0.000158 -3.158418  0.004717
   scf:    5    -5760.360585    -5760.360583    -5760.360583  0.000167 -3.158432  0.000778
   scf:    6    -5760.360583    -5760.360583    -5760.360583  0.000028 -3.158444  0.000390

SCF Convergence by DM+H criterion
max |DM_out - DM_in|         :     0.0000276267
max |H_out - H_in|      (eV) :     0.0003903681
SCF cycle converged after 6 iterations

Using DM_out to compute the final energy and forces
No. of atoms with KB's overlaping orbs in proc 0. Max # of overlaps:      48      56

siesta: E_KS(eV) =            -5760.3606

siesta: Atomic forces (eV/Ang):
----------------------------------------
   Tot    0.004518   -0.000000   -0.000000
----------------------------------------
   Max    0.384297
   Res    0.037690    sqrt( Sum f_i^2 / 3N )
----------------------------------------
   Max    0.384297    constrained

Stress tensor Voigt[x,y,z,yz,xz,xy] (kbar):      -74.65      -74.66      -74.66        0.55       -0.00       -0.00
(Free)E + p*V (eV/cell)    -5710.0013
Target enthalpy (eV/cell)    -5760.3606

                     ====================================
                        Begin FC step =      8
                         displace atom 28
                         in direction 1 by  0.021167 Ang
                     ====================================

outcell: Unit cell vectors (Ang):
        0.000000    8.145000    8.145000
        8.145000    0.000000    8.145000
        8.145000    8.145000    0.000000

outcell: Cell vector modules (Ang)   :   11.518769   11.518769   11.518769
outcell: Cell angles (23,13,12) (deg):     60.0000     60.0000     60.0000
outcell: Cell volume (Ang**3)        :   1080.6953
Gamma-point calculation with multiply-connected orbital pairs
Folding of H and S implicitly performed
<dSpData1D:S at geom step 8
  <sparsity:sparsity for geom step 8
    nrows_g=216 nrows=48 sparsity=.1842 nnzs=8592, refcount: 7>
  <dData1D:(new from dSpData1D) n=8592, refcount: 1>
refcount: 1>
new_DM -- step:     9
Re-using DM from previous geometries...
Number of DMs in history: 1
 DM extrapolation coefficients: 
1   1.00000
New DM after history re-use:
<dSpData2D:SpM extrapolated using coords
  <sparsity:sparsity for geom step 8
    nrows_g=216 nrows=48 sparsity=.1842 nnzs=8592, refcount: 9>
  <dData2D:(temp array for extrapolation) n=8592 m=1, refcount: 1>
refcount: 1>
No. of atoms with KB's overlaping orbs in proc 0. Max # of overlaps:      48      56
New grid distribution:   1
           1       1:   36    1:   18    1:    9
           2       1:   36    1:   18   10:   18
           3       1:   36    1:   18   19:   27
           4       1:   36    1:   18   28:   36
           5       1:   36   19:   36    1:    9
           6       1:   36   19:   36   10:   18
           7       1:   36   19:   36   19:   27
           8       1:   36   19:   36   28:   36

InitMesh: MESH =    72 x    72 x    72 =      373248
InitMesh: (bp) =    36 x    36 x    36 =       46656
InitMesh: Mesh cutoff (required, used) =   130.000   161.974 Ry
ExtMesh (bp) on 0 =    88 x    70 x    61 =      375760
New grid distribution:   2
           1       1:   18   19:   36   19:   36
           2      19:   36    1:   18    1:   18
           3      19:   36    1:   18   19:   36
           4      19:   36   19:   36    1:   18
           5       1:   18    1:   18   19:   36
           6       1:   18    1:   18    1:   18
           7      19:   36   19:   36   19:   36
           8       1:   18   19:   36    1:   18
New grid distribution:   3
           1       1:   18   19:   36   19:   36
           2      19:   36    1:   18    1:   18
           3      19:   36    1:   18   19:   36
           4      19:   36   19:   36    1:   18
           5       1:   18    1:   18   19:   36
           6       1:   18    1:   18    1:   18
           7      19:   36   19:   36   19:   36
           8       1:   18   19:   36    1:   18
Setting up quadratic distribution...
ExtMesh (bp) on 0 =    70 x    70 x    70 =      343000
PhiOnMesh: Number of (b)points on node 0 =                 5832
PhiOnMesh: nlist on node 0 =               175348

        iscf     Eharris(eV)        E_KS(eV)     FreeEng(eV)     dDmax    Ef(eV) dHmax(eV)
   scf:    1    -5760.356241    -5760.360298    -5760.360298  0.003319 -3.158665  0.037457
   scf:    2    -5760.358119    -5760.359805    -5760.359805  0.005438 -3.157630  0.067447
   scf:    3    -5760.360801    -5760.360574    -5760.360574  0.003452 -3.158417  0.007816
   scf:    4    -5760.360585    -5760.360580    -5760.360580  0.000158 -3.158418  0.004717
   scf:    5    -5760.360585    -5760.360583    -5760.360583  0.000167 -3.158432  0.000778
   scf:    6    -5760.360583    -5760.360583    -5760.360583  0.000028 -3.158444  0.000390

SCF Convergence by DM+H criterion
max |DM_out - DM_in|         :     0.0000276267
max |H_out - H_in|      (eV) :     0.0003903681
SCF cycle converged after 6 iterations

Using DM_out to compute the final energy and forces
No. of atoms with KB's overlaping orbs in proc 0. Max # of overlaps:      48      56

siesta: E_KS(eV) =            -5760.3606

siesta: Atomic forces (eV/Ang):
----------------------------------------
   Tot   -0.004518    0.000000    0.000000
----------------------------------------
   Max    0.384297
   Res    0.037690    sqrt( Sum f_i^2 / 3N )
----------------------------------------
   Max    0.384297    constrained

Stress tensor Voigt[x,y,z,yz,xz,xy] (kbar):      -74.65      -74.66      -74.66       -0.55       -0.00       -0.00
(Free)E + p*V (eV/cell)    -5710.0013
Target enthalpy (eV/cell)    -5760.3606

                     ====================================
                        Begin FC step =      9
                         displace atom 28
                         in direction 2 by -0.021167 Ang
                     ====================================

outcell: Unit cell vectors (Ang):
        0.000000    8.145000    8.145000
        8.145000    0.000000    8.145000
        8.145000    8.145000    0.000000

outcell: Cell vector modules (Ang)   :   11.518769   11.518769   11.518769
outcell: Cell angles (23,13,12) (deg):     60.0000     60.0000     60.0000
outcell: Cell volume (Ang**3)        :   1080.6953
Gamma-point calculation with multiply-connected orbital pairs
Folding of H and S implicitly performed
<dSpData1D:S at geom step 9
  <sparsity:sparsity for geom step 9
    nrows_g=216 nrows=48 sparsity=.1842 nnzs=8592, refcount: 7>
  <dData1D:(new from dSpData1D) n=8592, refcount: 1>
refcount: 1>
new_DM -- step:    10
Re-using DM from previous geometries...
Number of DMs in history: 1
 DM extrapolation coefficients: 
1   1.00000
New DM after history re-use:
<dSpData2D:SpM extrapolated using coords
  <sparsity:sparsity for geom step 9
    nrows_g=216 nrows=48 sparsity=.1842 nnzs=8592, refcount: 9>
  <dData2D:(temp array for extrapolation) n=8592 m=1, refcount: 1>
refcount: 1>
No. of atoms with KB's overlaping orbs in proc 0. Max # of overlaps:      48      56
New grid distribution:   1
           1       1:   36    1:   18    1:    9
           2       1:   36    1:   18   10:   18
           3       1:   36    1:   18   19:   27
           4       1:   36    1:   18   28:   36
           5       1:   36   19:   36    1:    9
           6       1:   36   19:   36   10:   18
           7       1:   36   19:   36   19:   27
           8       1:   36   19:   36   28:   36

InitMesh: MESH =    72 x    72 x    72 =      373248
InitMesh: (bp) =    36 x    36 x    36 =       46656
InitMesh: Mesh cutoff (required, used) =   130.000   161.974 Ry
ExtMesh (bp) on 0 =    88 x    70 x    61 =      375760
New grid distribution:   2
           1       1:   18   19:   36   19:   36
           2      19:   36    1:   18    1:   18
           3      19:   36    1:   18   19:   36
           4      19:   36   19:   36    1:   18
           5       1:   18    1:   18   19:   36
           6       1:   18    1:   18    1:   18
           7      19:   36   19:   36   19:   36
           8       1:   18   19:   36    1:   18
New grid distribution:   3
           1       1:   18   19:   36   19:   36
           2      19:   36    1:   18    1:   18
           3      19:   36    1:   18   19:   36
           4      19:   36   19:   36    1:   18
           5       1:   18    1:   18   19:   36
           6       1:   18    1:   18    1:   18
           7      19:   36   19:   36   19:   36
           8       1:   18   19:   36    1:   18
Setting up quadratic distribution...
ExtMesh (bp) on 0 =    70 x    70 x    70 =      343000
PhiOnMesh: Number of (b)points on node 0 =                 5832
PhiOnMesh: nlist on node 0 =               175400

        iscf     Eharris(eV)        E_KS(eV)     FreeEng(eV)     dDmax    Ef(eV) dHmax(eV)
   scf:    1    -5760.356241    -5760.360298    -5760.360298  0.003319 -3.158665  0.037457
   scf:    2    -5760.358119    -5760.359805    -5760.359805  0.005438 -3.157630  0.067447
   scf:    3    -5760.360801    -5760.360574    -5760.360574  0.003452 -3.158417  0.007816
   scf:    4    -5760.360585    -5760.360580    -5760.360580  0.000158 -3.158418  0.004717
   scf:    5    -5760.360585    -5760.360583    -5760.360583  0.000167 -3.158432  0.000778
   scf:    6    -5760.360583    -5760.360583    -5760.360583  0.000028 -3.158444  0.000390

SCF Convergence by DM+H criterion
max |DM_out - DM_in|         :     0.0000276267
max |H_out - H_in|      (eV) :     0.0003903681
SCF cycle converged after 6 iterations

Using DM_out to compute the final energy and forces
No. of atoms with KB's overlaping orbs in proc 0. Max # of overlaps:      48      56

siesta: E_KS(eV) =            -5760.3606

siesta: Atomic forces (eV/Ang):
----------------------------------------
   Tot   -0.000000    0.004518   -0.000000
----------------------------------------
   Max    0.384297
   Res    0.037690    sqrt( Sum f_i^2 / 3N )
----------------------------------------
   Max    0.384297    constrained

Stress tensor Voigt[x,y,z,yz,xz,xy] (kbar):      -74.66      -74.65      -74.66       -0.00        0.55       -0.00
(Free)E + p*V (eV/cell)    -5710.0013
Target enthalpy (eV/cell)    -5760.3606

                     ====================================
                        Begin FC step =     10
                         displace atom 28
                         in direction 2 by  0.021167 Ang
                     ====================================

outcell: Unit cell vectors (Ang):
        0.000000    8.145000    8.145000
        8.145000    0.000000    8.145000
        8.145000    8.145000    0.000000

outcell: Cell vector modules (Ang)   :   11.518769   11.518769   11.518769
outcell: Cell angles (23,13,12) (deg):     60.0000     60.0000     60.0000
outcell: Cell volume (Ang**3)        :   1080.6953
Gamma-point calculation with multiply-connected orbital pairs
Folding of H and S implicitly performed
<dSpData1D:S at geom step 10
  <sparsity:sparsity for geom step 10
    nrows_g=216 nrows=48 sparsity=.1842 nnzs=8592, refcount: 7>
  <dData1D:(new from dSpData1D) n=8592, refcount: 1>
refcount: 1>
new_DM -- step:    11
Re-using DM from previous geometries...
Number of DMs in history: 1
 DM extrapolation coefficients: 
1   1.00000
New DM after history re-use:
<dSpData2D:SpM extrapolated using coords
  <sparsity:sparsity for geom step 10
    nrows_g=216 nrows=48 sparsity=.1842 nnzs=8592, refcount: 9>
  <dData2D:(temp array for extrapolation) n=8592 m=1, refcount: 1>
refcount: 1>
No. of atoms with KB's overlaping orbs in proc 0. Max # of overlaps:      48      56
New grid distribution:   1
           1       1:   36    1:   18    1:    9
           2       1:   36    1:   18   10:   18
           3       1:   36    1:   18   19:   27
           4       1:   36    1:   18   28:   36
           5       1:   36   19:   36    1:    9
           6       1:   36   19:   36   10:   18
           7       1:   36   19:   36   19:   27
           8       1:   36   19:   36   28:   36

InitMesh: MESH =    72 x    72 x    72 =      373248
InitMesh: (bp) =    36 x    36 x    36 =       46656
InitMesh: Mesh cutoff (required, used) =   130.000   161.974 Ry
ExtMesh (bp) on 0 =    88 x    70 x    61 =      375760
New grid distribution:   2
           1       1:   18   19:   36   19:   36
           2      19:   36    1:   18    1:   18
           3      19:   36    1:   18   19:   36
           4      19:   36   19:   36    1:   18
           5       1:   18    1:   18   19:   36
           6       1:   18    1:   18    1:   18
           7      19:   36   19:   36   19:   36
           8       1:   18   19:   36    1:   18
New grid distribution:   3
           1       1:   18   19:   36   19:   36
           2      19:   36    1:   18    1:   18
           3      19:   36    1:   18   19:   36
           4      19:   36   19:   36    1:   18
           5       1:   18    1:   18   19:   36
           6       1:   18    1:   18    1:   18
           7      19:   36   19:   36   19:   36
           8       1:   18   19:   36    1:   18
Setting up quadratic distribution...
ExtMesh (bp) on 0 =    70 x    70 x    70 =      343000
PhiOnMesh: Number of (b)points on node 0 =                 5832
PhiOnMesh: nlist on node 0 =               175431

        iscf     Eharris(eV)        E_KS(eV)     FreeEng(eV)     dDmax    Ef(eV) dHmax(eV)
   scf:    1    -5760.356241    -5760.360298    -5760.360298  0.003319 -3.158665  0.037457
   scf:    2    -5760.358119    -5760.359805    -5760.359805  0.005438 -3.157630  0.067447
   scf:    3    -5760.360801    -5760.360574    -5760.360574  0.003452 -3.158417  0.007816
   scf:    4    -5760.360585    -5760.360580    -5760.360580  0.000158 -3.158418  0.004717
   scf:    5    -5760.360585    -5760.360583    -5760.360583  0.000167 -3.158432  0.000778
   scf:    6    -5760.360583    -5760.360583    -5760.360583  0.000028 -3.158444  0.000390

SCF Convergence by DM+H criterion
max |DM_out - DM_in|         :     0.0000276267
max |H_out - H_in|      (eV) :     0.0003903681
SCF cycle converged after 6 iterations

Using DM_out to compute the final energy and forces
No. of atoms with KB's overlaping orbs in proc 0. Max # of overlaps:      48      56

siesta: E_KS(eV) =            -5760.3606

siesta: Atomic forces (eV/Ang):
----------------------------------------
   Tot    0.000000   -0.004518    0.000000
----------------------------------------
   Max    0.384297
   Res    0.037690    sqrt( Sum f_i^2 / 3N )
----------------------------------------
   Max    0.384297    constrained

Stress tensor Voigt[x,y,z,yz,xz,xy] (kbar):      -74.66      -74.65      -74.66       -0.00       -0.55       -0.00
(Free)E + p*V (eV/cell)    -5710.0013
Target enthalpy (eV/cell)    -5760.3606

                     ====================================
                        Begin FC step =     11
                         displace atom 28
                         in direction 3 by -0.021167 Ang
                     ====================================

outcell: Unit cell vectors (Ang):
        0.000000    8.145000    8.145000
        8.145000    0.000000    8.145000
        8.145000    8.145000    0.000000

outcell: Cell vector modules (Ang)   :   11.518769   11.518769   11.518769
outcell: Cell angles (23,13,12) (deg):     60.0000     60.0000     60.0000
outcell: Cell volume (Ang**3)        :   1080.6953
Gamma-point calculation with multiply-connected orbital pairs
Folding of H and S implicitly performed
<dSpData1D:S at geom step 11
  <sparsity:sparsity for geom step 11
    nrows_g=216 nrows=48 sparsity=.1842 nnzs=8592, refcount: 7>
  <dData1D:(new from dSpData1D) n=8592, refcount: 1>
refcount: 1>
new_DM -- step:    12
Re-using DM from previous geometries...
Number of DMs in history: 1
 DM extrapolation coefficients: 
1   1.00000
New DM after history re-use:
<dSpData2D:SpM extrapolated using coords
  <sparsity:sparsity for geom step 11
    nrows_g=216 nrows=48 sparsity=.1842 nnzs=8592, refcount: 9>
  <dData2D:(temp array for extrapolation) n=8592 m=1, refcount: 1>
refcount: 1>
No. of atoms with KB's overlaping orbs in proc 0. Max # of overlaps:      48      56
New grid distribution:   1
           1       1:   36    1:   18    1:    9
           2       1:   36    1:   18   10:   18
           3       1:   36    1:   18   19:   27
           4       1:   36    1:   18   28:   36
           5       1:   36   19:   36    1:    9
           6       1:   36   19:   36   10:   18
           7       1:   36   19:   36   19:   27
           8       1:   36   19:   36   28:   36

InitMesh: MESH =    72 x    72 x    72 =      373248
InitMesh: (bp) =    36 x    36 x    36 =       46656
InitMesh: Mesh cutoff (required, used) =   130.000   161.974 Ry
ExtMesh (bp) on 0 =    88 x    70 x    61 =      375760
New grid distribution:   2
           1       1:   18   19:   36   19:   36
           2      19:   36    1:   18    1:   18
           3      19:   36    1:   18   19:   36
           4      19:   36   19:   36    1:   18
           5       1:   18    1:   18   19:   36
           6       1:   18    1:   18    1:   18
           7      19:   36   19:   36   19:   36
           8       1:   18   19:   36    1:   18
New grid distribution:   3
           1       1:   18   19:   36   19:   36
           2      19:   36    1:   18    1:   18
           3      19:   36    1:   18   19:   36
           4      19:   36   19:   36    1:   18
           5       1:   18    1:   18   19:   36
           6       1:   18    1:   18    1:   18
           7      19:   36   19:   36   19:   36
           8       1:   18   19:   36    1:   18
Setting up quadratic distribution...
ExtMesh (bp) on 0 =    70 x    70 x    70 =      343000
PhiOnMesh: Number of (b)points on node 0 =                 5832
PhiOnMesh: nlist on node 0 =               175400

        iscf     Eharris(eV)        E_KS(eV)     FreeEng(eV)     dDmax    Ef(eV) dHmax(eV)
   scf:    1    -5760.356241    -5760.360298    -5760.360298  0.003319 -3.158665  0.037457
   scf:    2    -5760.358119    -5760.359805    -5760.359805  0.005438 -3.157630  0.067447
   scf:    3    -5760.360801    -5760.360574    -5760.360574  0.003452 -3.158417  0.007816
   scf:    4    -5760.360585    -5760.360580    -5760.360580  0.000158 -3.158418  0.004717
   scf:    5    -5760.360585    -5760.360583    -5760.360583  0.000167 -3.158432  0.000778
   scf:    6    -5760.360583    -5760.360583    -5760.360583  0.000028 -3.158444  0.000390

SCF Convergence by DM+H criterion
max |DM_out - DM_in|         :     0.0000276267
max |H_out - H_in|      (eV) :     0.0003903681
SCF cycle converged after 6 iterations

Using DM_out to compute the final energy and forces
No. of atoms with KB's overlaping orbs in proc 0. Max # of overlaps:      48      56

siesta: E_KS(eV) =            -5760.3606

siesta: Atomic forces (eV/Ang):
----------------------------------------
   Tot   -0.000000   -0.000000    0.004518
----------------------------------------
   Max    0.384297
   Res    0.037690    sqrt( Sum f_i^2 / 3N )
----------------------------------------
   Max    0.384297    constrained

Stress tensor Voigt[x,y,z,yz,xz,xy] (kbar):      -74.66      -74.66      -74.65       -0.00       -0.00        0.55
(Free)E + p*V (eV/cell)    -5710.0013
Target enthalpy (eV/cell)    -5760.3606

                     ====================================
                        Begin FC step =     12
                         displace atom 28
                         in direction 3 by  0.021167 Ang
                     ====================================

outcell: Unit cell vectors (Ang):
        0.000000    8.145000    8.145000
        8.145000    0.000000    8.145000
        8.145000    8.145000    0.000000

outcell: Cell vector modules (Ang)   :   11.518769   11.518769   11.518769
outcell: Cell angles (23,13,12) (deg):     60.0000     60.0000     60.0000
outcell: Cell volume (Ang**3)        :   1080.6953
Gamma-point calculation with multiply-connected orbital pairs
Folding of H and S implicitly performed
<dSpData1D:S at geom step 12
  <sparsity:sparsity for geom step 12
    nrows_g=216 nrows=48 sparsity=.1842 nnzs=8592, refcount: 7>
  <dData1D:(new from dSpData1D) n=8592, refcount: 1>
refcount: 1>
new_DM -- step:    13
Re-using DM from previous geometries...
Number of DMs in history: 1
 DM extrapolation coefficients: 
1   1.00000
New DM after history re-use:
<dSpData2D:SpM extrapolated using coords
  <sparsity:sparsity for geom step 12
    nrows_g=216 nrows=48 sparsity=.1842 nnzs=8592, refcount: 9>
  <dData2D:(temp array for extrapolation) n=8592 m=1, refcount: 1>
refcount: 1>
No. of atoms with KB's overlaping orbs in proc 0. Max # of overlaps:      48      56
New grid distribution:   1
           1       1:   36    1:   18    1:    9
           2       1:   36    1:   18   10:   18
           3       1:   36    1:   18   19:   27
           4       1:   36    1:   18   28:   36
           5       1:   36   19:   36    1:    9
           6       1:   36   19:   36   10:   18
           7       1:   36   19:   36   19:   27
           8       1:   36   19:   36   28:   36

InitMesh: MESH =    72 x    72 x    72 =      373248
InitMesh: (bp) =    36 x    36 x    36 =       46656
InitMesh: Mesh cutoff (required, used) =   130.000   161.974 Ry
ExtMesh (bp) on 0 =    88 x    70 x    61 =      375760
New grid distribution:   2
           1       1:   18   19:   36   19:   36
           2      19:   36    1:   18    1:   18
           3      19:   36    1:   18   19:   36
           4      19:   36   19:   36    1:   18
           5       1:   18    1:   18   19:   36
           6       1:   18    1:   18    1:   18
           7      19:   36   19:   36   19:   36
           8       1:   18   19:   36    1:   18
New grid distribution:   3
           1       1:   18   19:   36   19:   36
           2      19:   36    1:   18    1:   18
           3      19:   36    1:   18   19:   36
           4      19:   36   19:   36    1:   18
           5       1:   18    1:   18   19:   36
           6       1:   18    1:   18    1:   18
           7      19:   36   19:   36   19:   36
           8       1:   18   19:   36    1:   18
Setting up quadratic distribution...
ExtMesh (bp) on 0 =    70 x    70 x    70 =      343000
PhiOnMesh: Number of (b)points on node 0 =                 5832
PhiOnMesh: nlist on node 0 =               175431

        iscf     Eharris(eV)        E_KS(eV)     FreeEng(eV)     dDmax    Ef(eV) dHmax(eV)
   scf:    1    -5760.356241    -5760.360298    -5760.360298  0.003319 -3.158665  0.037457
   scf:    2    -5760.358119    -5760.359805    -5760.359805  0.005438 -3.157630  0.067447
   scf:    3    -5760.360801    -5760.360574    -5760.360574  0.003452 -3.158417  0.007816
   scf:    4    -5760.360585    -5760.360580    -5760.360580  0.000158 -3.158418  0.004717
   scf:    5    -5760.360585    -5760.360583    -5760.360583  0.000167 -3.158432  0.000778
   scf:    6    -5760.360583    -5760.360583    -5760.360583  0.000028 -3.158444  0.000390

SCF Convergence by DM+H criterion
max |DM_out - DM_in|         :     0.0000276267
max |H_out - H_in|      (eV) :     0.0003903681
SCF cycle converged after 6 iterations

Using DM_out to compute the final energy and forces
No. of atoms with KB's overlaping orbs in proc 0. Max # of overlaps:      48      56

siesta: E_KS(eV) =            -5760.3606

siesta: Atomic forces (eV/Ang):
----------------------------------------
   Tot    0.000000    0.000000   -0.004518
----------------------------------------
   Max    0.384297
   Res    0.037690    sqrt( Sum f_i^2 / 3N )
----------------------------------------
   Max    0.384297    constrained

Stress tensor Voigt[x,y,z,yz,xz,xy] (kbar):      -74.66      -74.66      -74.65       -0.00       -0.00       -0.55
(Free)E + p*V (eV/cell)    -5710.0013
Target enthalpy (eV/cell)    -5760.3606

siesta: Program's energy decomposition (eV):
siesta: Ebs     =     -2030.879648
siesta: Eions   =     10281.657338
siesta: Ena     =      3118.566108
siesta: Ekin    =      2166.935322
siesta: Enl     =       797.870347
siesta: Eso     =         0.000000
siesta: Edftu   =         0.000000
siesta: DEna    =       167.748444
siesta: DUscf   =         4.129867
siesta: DUext   =         0.000000
siesta: Exc     =     -1733.953334
siesta: eta*DQ  =         0.000000
siesta: Emadel  =         0.000000
siesta: Emeta   =         0.000000
siesta: Emolmec =         0.000000
siesta: Ekinion =         0.000000
siesta: Eharris =     -5760.360583
siesta: Etot    =     -5760.360583
siesta: FreeEng =     -5760.360583

siesta: Final energy (eV):
siesta:  Band Struct. =   -2030.879648
siesta:       Kinetic =    2166.935322
siesta:       Hartree =     337.318223
siesta:       Edftu   =       0.000000
siesta:       Eso     =       0.000000
siesta:    Ext. field =       0.000000
siesta:   Exch.-corr. =   -1733.953334
siesta:  Ion-electron =   -2611.776754
siesta:       Ion-ion =   -3918.884041
siesta:       Ekinion =       0.000000
siesta:         Total =   -5760.360583
siesta:         Fermi =      -3.158444

siesta: Atomic forces (eV/Ang):
siesta:      1    0.000000    0.000000   -0.000711
siesta:      2   -0.000834   -0.000834    0.000285
siesta:      3   -0.001326   -0.001326   -0.001296
siesta:      4    0.000834    0.000834    0.000285
siesta:      5    0.001326    0.001326   -0.001296
siesta:      6   -0.000000   -0.000000    0.000627
siesta:      7    0.000359   -0.001311   -0.000325
siesta:      8   -0.000836    0.000836    0.000315
siesta:      9   -0.070449    0.070449    0.099361
siesta:     10   -0.003377    0.003914    0.002103
siesta:     11    0.001311   -0.000359   -0.000325
siesta:     12   -0.003914    0.003377    0.002103
siesta:     13    0.000299    0.001333   -0.000299
siesta:     14   -0.000001   -0.000000    0.000626
siesta:     15   -0.001333   -0.000299   -0.000299
siesta:     16    0.003344   -0.003344   -0.011208
siesta:     17    0.000057   -0.000057   -0.000654
siesta:     18    0.000000    0.000001    0.000626
siesta:     19   -0.001311    0.000359   -0.000325
siesta:     20    0.000836   -0.000836    0.000315
siesta:     21    0.070449   -0.070449    0.099361
siesta:     22    0.003914   -0.003377    0.002103
siesta:     23   -0.000359    0.001311   -0.000325
siesta:     24    0.003377   -0.003914    0.002103
siesta:     25   -0.073656   -0.073656    0.100459
siesta:     26    0.003476    0.003476   -0.011240
siesta:     27    0.073656    0.073656    0.100459
siesta:     28   -0.000000   -0.000000   -0.384297
siesta:     29    0.000000    0.000000    0.005264
siesta:     30   -0.003476   -0.003476   -0.011240
siesta:     31   -0.001324    0.001324   -0.001328
siesta:     32   -0.003439   -0.004005    0.002138
siesta:     33    0.000105    0.000003    0.000676
siesta:     34    0.004005    0.003439    0.002138
siesta:     35   -0.000003   -0.000105    0.000676
siesta:     36    0.000829   -0.000829    0.000294
siesta:     37    0.001333    0.000299   -0.000299
siesta:     38   -0.000000   -0.000001    0.000626
siesta:     39   -0.000299   -0.001333   -0.000299
siesta:     40   -0.003344    0.003344   -0.011208
siesta:     41   -0.000057    0.000057   -0.000654
siesta:     42    0.000001    0.000000    0.000626
siesta:     43    0.001324   -0.001324   -0.001328
siesta:     44   -0.004005   -0.003439    0.002138
siesta:     45    0.000003    0.000105    0.000676
siesta:     46    0.003439    0.004005    0.002138
siesta:     47   -0.000105   -0.000003    0.000676
siesta:     48   -0.000829    0.000829    0.000294
siesta:     49    0.000059    0.000059   -0.000662
siesta:     50   -0.000000   -0.000000    0.000641
siesta:     51    0.000000    0.000000    0.005029
siesta:     52    0.000837    0.000837    0.000302
siesta:     53   -0.000059   -0.000059   -0.000662
siesta:     54   -0.000837   -0.000837    0.000302
siesta: ----------------------------------------
siesta:    Tot    0.000000    0.000000   -0.004518

siesta: Stress tensor (static) (eV/Ang**3):
siesta:    -0.046601   -0.000346   -0.000000
siesta:    -0.000346   -0.046601   -0.000000
siesta:    -0.000000   -0.000000   -0.046595

siesta: Cell volume =       1080.695297 Ang**3

siesta: Pressure (static):
siesta:                Solid            Molecule  Units
siesta:           0.00050752          0.00050732  Ry/Bohr**3
siesta:           0.04659892          0.04658074  eV/Ang**3
siesta:          74.66051224         74.63137766  kBar
(Free)E+ p_basis*V_orbitals  =       -5744.789680
(Free)Eharris+ p_basis*V_orbitals  =       -5744.789680

cite: Please see "force_constants.bib" for an exhaustive BiBTeX file.
cite: Please clearly indicate Siesta version in published work: v4.1-b4-351
cite: This calculation has made use of the following articles
cite: which are encouraged to be cited in a published work.
        Primary SIESTA paper
          DOI: www.doi.org/10.1088/0953-8984/14/11/302

>> End of run:  22-JAN-2021  22:11:34
Job completed
[1611349894.653218] [n-62-21-35:24282:0]          mpool.c:42   UCX  WARN  object 0x36a4700 was not returned to mpool ucp_requests
[1611349894.654989] [n-62-21-35:24290:0]          mpool.c:42   UCX  WARN  object 0x3895700 was not returned to mpool ucp_requests
[1611349894.655333] [n-62-21-35:24284:0]          mpool.c:42   UCX  WARN  object 0x3b24700 was not returned to mpool ucp_requests
[1611349894.655339] [n-62-21-35:24288:0]          mpool.c:42   UCX  WARN  object 0x424b540 was not returned to mpool ucp_requests
