Siesta Version  : v4.1-b4-351
Architecture    : x86_64-linux-n-62-26-19
Compiler version: GNU Fortran (GCC) 9.3.0
Compiler flags  : mpifort -m64 -fPIC -O3 -march=native -ftree-vectorize -fexpensive-optimizatioons -funroll-loops -fprefetch-loop-arrays -fno-second-underscore  -flto
PP flags        : -I/dtu/sw/dcc/SL73/2020-aug/generic/build-tools/1.0/include -I/dtu/sw/dcc/SL773/2020-aug/generic/gcc/9.3.0/include -I/dtu/sw/dcc/SL73/2020-aug/generic/gcc/9.3.0/include -I/dtu/sw/dcc/SL73/2020-aug/XeonE5-2660v3/gnu/9.3.0/zlib/1.2.11/include -I/dtu/sw/dcc/SL73/2020-aug/generic/numactl/2.0.12/include -I/dtu/sw/dcc/SL73/2020-aug/XeonE5-2660v3/gnu/9.3.0/libxml2/2.9.10/include -I/dtu/sw/dcc/SL73/2020-aug/XeonE5-2660v3/gnu/9.3.0/hwloc/2.2.0/include -I/dtu/sw/dcc/SL73/2020-aug/XeonE5-2660v3/gnu/9.3.0/knem/1.1.4/include -I/dtu/sw/dcc/SL73/2020-aug/XeonE5-2660v3/gnu/9.3.0/ucx/1.8.1/include -I/dtu/sw/dcc/SL73/2020-aug/XeonE5-2660v3/gnu/9.3.0/openmpi/4.0.4/include -I/dtu/sw/dcc/SL73/2020-aug/XeonE5-2660v3/gnu/9.3.0/szip/2.1.1/include -I/dtu/sw/dcc/SL73/2020-aug/XeonE5-2660v3/gnu/9.3.0/hdf5/1.12.0/include -I/dtu/sw/dcc/SL73/2020-aug/XeonE5-2660v3/gnu/9.3.0/pnetcdf/1.12.1/include -I/dtu/sw/dcc/SL73/2020-aug/generic/gen-zlib/1.2.11/include -I/dtu/sw/dcc/SL73/2020-aug/generic/openssl/1.1.1/include -I/dtu/sw/dcc/SL73/2020-aug/generic/libssh2/1.8.2/include -I/dtu/sw/dcc/SL73/2020-aug/generic/curl/7.65.1/include -I/dtu/sw/dcc/SL73/2020-aug/XeonE5-2660v3/gnu/9.3.0/netcdf/4.7.4/include -I/dtu/sw/dcc/SL73/2020-aug/XeonE5-2660v3/gnu/9.3.0/flook/0.8.1/include -I/dtu/sw/dcc/SL73/2020-aug/XeonE5-2660v3/gnu/9.3.0/fftw/3.3.8/include -I/dtu/sw/dcc/SL73/2020-aug/XeonE5-2660v3/gnu/9.3.0/parmetis/4.0.3/include -I/dtu/sw/dcc/SL73/2020-aug/XeonE5-2660v3/gnu/9.3.0/scalapack/2.1.0/include -I/dtu/sw/dcc/SL73/2020-aug/XeonE5-2660v3/gnu/9.3.0/lapack/3.9.0/include -I/dtu/sw/dcc/SL73/2020-aug/XeonE5-2660v3/gnu/9.3.0/blis/0.7.0/include -I/dtu/sw/dcc/SL73/2020-aug/XeonE5-2660v3/gnu/9.3.0/scotch/6.0.9/include -I/dtu/sw/dcc/SL73/2020-aug/XeonE5-2660v3/gnu/9.3.0/mumps/5.3.3/include -I/dtu/sw/dcc/SL73/2020-aug/XeonE5-2660v3/gnu/9.3.0/elpa/2020.05.001/include -DSIESTA__ELPA -DMPI -DFC_HAVE_FLUSH -DFC_HAVE_ABORT -DCDF -DCDF4 -DSIESTA__FLOOK  -DNCDF -DNCDF_4 -DNCDF_PARALLEL -DTS_NOCHECKS -DSIESTA__METIS -DSIESTA__MUMPS -DSIESTA__MRRR -I/dtu/sw/dcc/SL73/2020-aug/XeonE5-2660v3/gnu/9.3.0/elpa/2020.05.001/include/elpa
Libraries       : libncdf.a libfdict.a -lnetcdff -lnetcdf -lpnetcdf -lhdf5_hl -lhdf5 -lz  -lzmuumps -lmumps_common -lesmumps -lscotch -lscotcherr -lpord -lparmetis -lmetis -lelpa -lscalapack -llapack -lblis  -L/dtu/sw/dcc/SL73/2020-aug/XeonE5-2660v3/gnu/9.3.0/flook/0.8.1/lib -Wl,-rpath=/dtu/sw/dcc/SL73/2020-aug/XeonE5-2660v3/gnu/9.3.0/flook/0.8.1/lib -lflookall -ldl  -flto -fuse-linker-plugin  -lmetis
PARALLEL version
NetCDF support
NetCDF-4 support
NetCDF-4 MPI-IO support
METIS ordering support
Lua support

* Running on 8 nodes in parallel
>> Start of run:  22-JAN-2021  22:11:42

                           ***********************       
                           *  WELCOME TO SIESTA  *       
                           ***********************       

reinit: Reading from ../gate_G_hartree.fdf

reinit: -----------------------------------------------------------------------
reinit: System Name: 
reinit: -----------------------------------------------------------------------
reinit: System Label: gate_G_hartree
reinit: -----------------------------------------------------------------------

initatom: Reading input for the pseudopotentials and atomic orbitals ----------
Species number:   1 Atomic number:    6 Label: C.pbe

Ground state valence configuration:   2s02  2p02
Reading pseudopotential information in formatted form from C.pbe.psf

Valence configuration for pseudopotential generation:
2s( 2.00) rc: 1.49
2p( 2.00) rc: 1.52
3d( 0.00) rc: 1.52
relmxkb: Read Max KB Ang. Momentum=    2 for species C.pbe

<basis_specs>
===============================================================================
C.pbe                Z=   6    Mass=  12.010        Charge= 0.17977+309
Lmxo=1 Lmxkb= 2    BasisType=split      Semic=F
L=0  Nsemic=0  Cnfigmx=2
          i=1  nzeta=2  polorb=0  (2s)
            splnorm:   0.15000    
               vcte:    0.0000    
               rinn:    0.0000    
               qcoe:    0.0000    
               qyuk:    0.0000    
               qwid:   0.10000E-01
                rcs:    0.0000      0.0000    
            lambdas:    1.0000      1.0000    
L=1  Nsemic=0  Cnfigmx=2
          i=1  nzeta=2  polorb=1  (2p)
            splnorm:   0.15000    
               vcte:    0.0000    
               rinn:    0.0000    
               qcoe:    0.0000    
               qyuk:    0.0000    
               qwid:   0.10000E-01
                rcs:    0.0000      0.0000    
            lambdas:    1.0000      1.0000    
-------------------------------------------------------------------------------
L=0  Nkbl=1  erefs: 0.17977+309
L=1  Nkbl=1  erefs: 0.17977+309
L=2  Nkbl=1  erefs: 0.17977+309
===============================================================================
</basis_specs>

atom: Called for C.pbe                 (Z =   6)

read_vps: Pseudopotential generation method:
read_vps: ATM 3.2.2 Troullier-Martins                       
Valence charge for ps generation:    4.00000

read_vps: Pseudopotential includes a core correction:
read_vps: Pseudo-core for xc-correction

xc_check: Exchange-correlation functional:
xc_check: GGA Perdew, Burke & Ernzerhof 1996
V l=0 = -2*Zval/r beyond r=  1.4666
V l=1 = -2*Zval/r beyond r=  1.5038
V l=2 = -2*Zval/r beyond r=  1.5038
All V_l potentials equal beyond r=  1.5038
This should be close to max(r_c) in ps generation
All pots = -2*Zval/r beyond r=  1.5038

VLOCAL1: 99.0% of the norm of Vloc inside     19.196 Ry
VLOCAL1: 99.9% of the norm of Vloc inside     43.748 Ry
atom: Maximum radius for 4*pi*r*r*local-pseudopot. charge    1.81396
atom: Maximum radius for r*vlocal+2*Zval:    1.56123
GHOST: No ghost state for L =  0
GHOST: No ghost state for L =  1
GHOST: No ghost state for L =  2

KBgen: Kleinman-Bylander projectors: 
   l= 0   rc=  1.682861   el= -1.009802   Ekb=  5.530688   kbcos=  0.309203
   l= 1   rc=  1.682861   el= -0.388707   Ekb= -3.901042   kbcos= -0.358653
   l= 2   rc=  1.769164   el=  0.001971   Ekb= -0.965319   kbcos= -0.008918

KBgen: Total number of  Kleinman-Bylander projectors:    9
atom: -------------------------------------------------------------------------

atom: SANKEY-TYPE ORBITALS:
atom: Selected multiple-zeta basis: split     

SPLIT: Orbitals with angular momentum L= 0

SPLIT: Basis orbitals for state 2s

SPLIT: PAO cut-off radius determined from an
SPLIT: energy shift=  0.020000 Ry

   izeta = 1
                 lambda =    1.000000
                     rc =    4.088342
                 energy =   -0.989106
                kinetic =    0.910778
    potential(screened) =   -1.899884
       potential(ionic) =   -5.496861

   izeta = 2
                 rmatch =    3.347176
              splitnorm =    0.150000
                 energy =   -0.834819
                kinetic =    1.378175
    potential(screened) =   -2.212994
       potential(ionic) =   -6.037557

SPLIT: Orbitals with angular momentum L= 1

SPLIT: Basis orbitals for state 2p

SPLIT: PAO cut-off radius determined from an
SPLIT: energy shift=  0.020000 Ry

   izeta = 1
                 lambda =    1.000000
                     rc =    4.870301
                 energy =   -0.368906
                kinetic =    2.525433
    potential(screened) =   -2.894339
       potential(ionic) =   -6.379903

   izeta = 2
                 rmatch =    3.475094
              splitnorm =    0.150000
                 energy =   -0.205960
                kinetic =    3.776072
    potential(screened) =   -3.982032
       potential(ionic) =   -7.825622

POLgen: Perturbative polarization orbital with L=  2

POLgen: Polarization orbital for state 2p

   izeta = 1
                     rc =    4.870301
                 energy =    1.296406
                kinetic =    2.643413
    potential(screened) =   -1.347008
       potential(ionic) =   -4.301419
atom: Total number of Sankey-type orbitals: 13

atm_pop: Valence configuration (for local Pseudopot. screening):
 2s( 2.00)                                                            
 2p( 2.00)                                                            
Vna: chval, zval:    4.00000   4.00000

Vna:  Cut-off radius for the neutral-atom potential:   4.870301
comcore: Pseudo-core radius Rcore=  1.791422

atom: _________________________________________________________________________

prinput: Basis input ----------------------------------------------------------

PAO.BasisType split     

%block ChemicalSpeciesLabel
    1    6 C.pbe                   # Species index, atomic number, species label
%endblock ChemicalSpeciesLabel

%block PAO.Basis                 # Define Basis set
C.pbe                 2                    # Species label, number of l-shells
 n=2   0   2                         # n, l, Nzeta 
   4.088      3.347   
   1.000      1.000   
 n=2   1   2 P   1                   # n, l, Nzeta, Polarization, NzetaPol
   4.870      3.475   
   1.000      1.000   
%endblock PAO.Basis

prinput: ----------------------------------------------------------------------

Dumping basis to NetCDF file C.pbe.ion.nc
coor:   Atomic-coordinates input format  =     Cartesian coordinates
coor:                                          (in Angstroms)

siesta: Atomic coordinates (Bohr) and species
siesta:      0.00000   0.00000  47.24317  1        1
siesta:      2.73066   0.00000  47.24317  1        2

siesta: System type = slab      

initatomlists: Number of atoms, orbitals, and projectors:      2    26    18

coxmol: Writing XMOL coordinates into file gate_G_hartree.xyz                                                  

siesta: ******************** Simulation parameters ****************************
siesta:
siesta: The following are some of the parameters of the simulation.
siesta: A complete list of the parameters used, including default values,
siesta: can be found in file out.fdf
siesta:
redata: Spin configuration                          = none
redata: Number of spin components                   = 1
redata: Time-Reversal Symmetry                      = T
redata: Spin spiral                                 = F
redata: Long output                                 =   F
redata: Number of Atomic Species                    =        1
redata: Charge density info will appear in .RHO file
redata: Write Mulliken Pop.                         = NO
redata: Matel table size (NRTAB)                    =     1024
redata: Mesh Cutoff                                 =   200.0000 Ry
redata: Net charge of the system                    =     0.0000 |e|
redata: Min. number of SCF Iter                     =        3
redata: Max. number of SCF Iter                     =     1000
redata: SCF convergence failure will abort job
redata: SCF mix quantity                            = Hamiltonian
redata: Mix DM or H after convergence               =   F
redata: Recompute H after scf cycle                 =   F
redata: Mix DM in first SCF step                    =   T
redata: Write Pulay info on disk                    =   F
redata: New DM Occupancy tolerance                  = 0.000000000001
redata: No kicks to SCF
redata: DM Mixing Weight for Kicks                  =     0.5000
redata: Require Harris convergence for SCF          =   F
redata: Harris energy tolerance for SCF             =     0.000100 eV
redata: Require DM convergence for SCF              =   T
redata: DM tolerance for SCF                        =     0.000100
redata: Require EDM convergence for SCF             =   F
redata: EDM tolerance for SCF                       =     0.001000 eV
redata: Require H convergence for SCF               =   T
redata: Hamiltonian tolerance for SCF               =     0.001000 eV
redata: Require (free) Energy convergence for SCF   =   F
redata: (free) Energy tolerance for SCF             =     0.000100 eV
redata: Using Saved Data (generic)                  =   F
redata: Use continuation files for DM               =   F
redata: Neglect nonoverlap interactions             =   F
redata: Method of Calculation                       = Diagonalization
redata: Electronic Temperature                      =   299.9869 K
redata: Fix the spin of the system                  =   F
redata: Dynamics option                             = Single-point calculation
mix.SCF: Pulay mixing                            = Pulay
mix.SCF:    Variant                              = stable
mix.SCF:    History steps                        = 20
mix.SCF:    Linear mixing weight                 =     0.100000
mix.SCF:    Mixing weight                        =     0.100000
mix.SCF:    SVD condition                        = 0.1000E-07
redata: Save all siesta data in one NC              =   F
redata: ***********************************************************************

%block SCF.Mixers
  Pulay
%endblock SCF.Mixers

%block SCF.Mixer.Pulay
  # Mixing method
  method pulay
  variant stable

  # Mixing options
  weight 0.1000
  weight.linear 0.1000
  history 20
%endblock SCF.Mixer.Pulay

DM_history_depth set to one: no extrapolation allowed by default for geometry relaxation
Size of DM history Fstack: 1
Total number of electrons:     8.000000
Total ionic charge:     8.000000

* ProcessorY, Blocksize:    2   3


* Orbital distribution balance (max,min):     5     3

k-point displ. along   1 input, could be:     0.00    0.50
k-point displ. along   2 input, could be:     0.00    0.50
 Kpoints in:         1012 . Kpoints trimmed:          991

siesta: k-grid: Number of k-points =   991
siesta: k-grid: Cutoff (effective) =    50.000 Ang
siesta: k-grid: Supercell and displacements
siesta: k-grid:   44   0   0      0.000
siesta: k-grid:    0  44   0      0.000
siesta: k-grid:    0   0   1      0.000

diag: Algorithm                                     = D&C
diag: Parallel over k                               =   T
diag: Use parallel 2D distribution                  =   T
diag: Parallel block-size                           = 3
diag: Parallel distribution                         =     2 x     4
diag: Used triangular part                          = Lower
diag: Absolute tolerance                            =  0.100E-15
diag: Orthogonalization factor                      =  0.100E-05
diag: Memory factor                                 =  1.0000

superc: Internal auxiliary supercell:     5 x     5 x     1  =      25
superc: Number of atoms, orbitals, and projectors:     50    650    450


ts: **************************************************************
ts: Save H and S matrices                           =    F
ts: Save DM and EDM matrices                        =    F
ts: Only save the overlap matrix S                  =    F
ts: **************************************************************

************************ Begin: TS CHECKS AND WARNINGS ************************
************************ End: TS CHECKS AND WARNINGS **************************


                     ====================================
                        Single-point calculation
                     ====================================

superc: Internal auxiliary supercell:     5 x     5 x     1  =      25
superc: Number of atoms, orbitals, and projectors:     50    650    450

outcell: Unit cell vectors (Ang):
        2.167500    1.251407    0.000000
        2.167500   -1.251407    0.000000
        0.000000    0.000000  100.000000

outcell: Cell vector modules (Ang)   :    2.502813    2.502813  100.000000
outcell: Cell angles (23,13,12) (deg):     90.0000     90.0000     60.0000
outcell: Cell volume (Ang**3)        :    542.4848
<dSpData1D:S at geom step 0
  <sparsity:sparsity for geom step 0
    nrows_g=26 nrows=5 sparsity=3.5222 nnzs=2381, refcount: 7>
  <dData1D:(new from dSpData1D) n=2381, refcount: 1>
refcount: 1>
new_DM -- step:     1
Initializing Density Matrix...
DM filled with atomic data:
<dSpData2D:DM initialized from atoms
  <sparsity:sparsity for geom step 0
    nrows_g=26 nrows=5 sparsity=3.5222 nnzs=2381, refcount: 8>
  <dData2D:DM n=2381 m=1, refcount: 1>
refcount: 1>
No. of atoms with KB's overlaping orbs in proc 0. Max # of overlaps:      16     157
New grid distribution:   1
           1       1:   10    1:    5    1:  108
           2       1:   10    1:    5  109:  216
           3       1:   10    1:    5  217:  324
           4       1:   10    1:    5  325:  432
           5       1:   10    6:   10    1:  108
           6       1:   10    6:   10  109:  216
           7       1:   10    6:   10  217:  324
           8       1:   10    6:   10  325:  432

InitMesh: MESH =    20 x    20 x   864 =      345600
InitMesh: (bp) =    10 x    10 x   432 =       43200
InitMesh: Mesh cutoff (required, used) =   200.000   206.314 Ry
ExtMesh (bp) on 0 =    58 x    53 x   156 =      479544

Geometric Hartree distributions:
   Infinite Gauss-plane   adding  0.10000E+01 eV in 14000 grid points

New grid distribution:   2
           1       1:   10    1:   10  106:  107
           2       1:   10    1:   10  110:  111
           3       1:   10    1:   10  114:  432
           4       1:   10    1:   10  109:  109
           5       1:   10    1:   10    1:  103
           6       1:   10    1:   10  112:  113
           7       1:   10    1:   10  104:  105
           8       1:   10    1:   10  108:  108
New grid distribution:   3
           1       1:   10    1:   10  115:  117
           2       1:   10    1:   10  112:  114
           3       1:   10    1:   10  118:  432
           4       1:   10    1:   10  100:  102
           5       1:   10    1:   10    1:   99
           6       1:   10    1:   10  109:  111
           7       1:   10    1:   10  103:  105
           8       1:   10    1:   10  106:  108
Setting up quadratic distribution...
ExtMesh (bp) on 0 =    58 x    58 x    50 =      168200
PhiOnMesh: Number of (b)points on node 0 =                  200
PhiOnMesh: nlist on node 0 =                16810

dipole: A dipole layer will be introduced in the vacuum
dipole: region to compensate the system dipole
Dipole moment in unit cell =       0.0000       0.0000      -0.0000 D
Electric field for dipole correction =    -0.000000    -0.000000     0.000000 eV/Ang/e

stepf: Fermi-Dirac step function
Dipole moment in unit cell =       0.0000       0.0000      -0.0000 D
Electric field for dipole correction =    -0.000000    -0.000000     0.000000 eV/Ang/e

siesta: Program's energy decomposition (eV):
siesta: Ebs     =       -95.709748
siesta: Eions   =       517.626557
siesta: Ena     =       111.905122
siesta: Ekin    =       220.363993
siesta: Enl     =       -22.081613
siesta: Eso     =         0.000000
siesta: Edftu   =         0.000000
siesta: DEna    =        -5.724407
siesta: DUscf   =         0.521423
siesta: DUext   =         0.000000
siesta: Exc     =      -102.178010
siesta: eta*DQ  =         0.000000
siesta: Emadel  =         0.000000
siesta: Emeta   =         0.000000
siesta: Emolmec =         0.000000
siesta: Ekinion =         0.000000
siesta: Eharris =      -315.689408
siesta: Etot    =      -314.820048
siesta: FreeEng =      -314.820050

        iscf     Eharris(eV)        E_KS(eV)     FreeEng(eV)     dDmax    Ef(eV) dHmax(eV)
   scf:    1     -315.689408     -314.820048     -314.820050  1.891695 -4.659430  2.231180
timer: Routine,Calls,Time,% = IterSCF        1       0.557  53.49
Dipole moment in unit cell =       0.0000       0.0000      -0.0000 D
Electric field for dipole correction =    -0.000000    -0.000000     0.000000 eV/Ang/e
   scf:    2     -314.844971     -314.832629     -314.832631  0.007674 -4.503632  1.914158
Dipole moment in unit cell =      -0.0000      -0.0000       0.0000 D
Electric field for dipole correction =     0.000000     0.000000    -0.000000 eV/Ang/e
   scf:    3     -314.898828     -314.870324     -314.870325  0.048690 -3.579297  0.046000
Dipole moment in unit cell =       0.0000       0.0000      -0.0000 D
Electric field for dipole correction =    -0.000000    -0.000000     0.000000 eV/Ang/e
   scf:    4     -314.869855     -314.870102     -314.870104  0.004329 -3.753290  0.220555
Dipole moment in unit cell =       0.0000       0.0000      -0.0000 D
Electric field for dipole correction =    -0.000000    -0.000000     0.000000 eV/Ang/e
   scf:    5     -314.870690     -314.870439     -314.870440  0.005190 -3.637768  0.008833
Dipole moment in unit cell =       0.0000       0.0000      -0.0000 D
Electric field for dipole correction =    -0.000000    -0.000000     0.000000 eV/Ang/e
   scf:    6     -314.870437     -314.870438     -314.870439  0.000165 -3.640779  0.013749
Dipole moment in unit cell =       0.0000       0.0000      -0.0000 D
Electric field for dipole correction =    -0.000000    -0.000000     0.000000 eV/Ang/e
   scf:    7     -314.870440     -314.870439     -314.870440  0.000297 -3.634240  0.001379
mix: Pulay -- inversion failed, > SVD [rank/size] 3 / 6
Dipole moment in unit cell =       0.0000       0.0000      -0.0000 D
Electric field for dipole correction =    -0.000000    -0.000000     0.000000 eV/Ang/e
   scf:    8     -314.870439     -314.870439     -314.870440  0.000032 -3.633352  0.000080

SCF Convergence by DM+H criterion
max |DM_out - DM_in|         :     0.0000320149
max |H_out - H_in|      (eV) :     0.0000798304
SCF cycle converged after 8 iterations

Using DM_out to compute the final energy and forces
No. of atoms with KB's overlaping orbs in proc 0. Max # of overlaps:      16     157
Dipole moment in unit cell =       0.0000       0.0000      -0.0000 D
Electric field for dipole correction =    -0.000000    -0.000000     0.000000 eV/Ang/e

siesta: E_KS(eV) =             -314.8704

siesta: E_KS - E_eggbox =      -314.8704

siesta: Atomic forces (eV/Ang):
----------------------------------------
   Tot   -0.000007   -0.000000    0.000000
----------------------------------------
   Max    0.000125
   Res    0.000070    sqrt( Sum f_i^2 / 3N )
----------------------------------------
   Max    0.000125    constrained

Stress tensor Voigt[x,y,z,yz,xz,xy] (kbar):        4.06        4.06       -0.00        0.00        0.00       -0.00
(Free)E + p*V (eV/cell)     -315.7862
Target enthalpy (eV/cell)     -314.8704

coxmol: Writing XMOL coordinates into file gate_G_hartree.xyz                                                  

siesta: Program's energy decomposition (eV):
siesta: Ebs     =      -100.706698
siesta: Eions   =       517.626557
siesta: Ena     =       111.905122
siesta: Ekin    =       216.853285
siesta: Enl     =       -21.245593
siesta: Eso     =         0.000000
siesta: Edftu   =         0.000000
siesta: DEna    =        -3.617040
siesta: DUscf   =         0.384588
siesta: DUext   =         0.000000
siesta: Exc     =      -101.524246
siesta: eta*DQ  =         0.000000
siesta: Emadel  =         0.000000
siesta: Emeta   =         0.000000
siesta: Emolmec =         0.000000
siesta: Ekinion =         0.000000
siesta: Eharris =      -314.870439
siesta: Etot    =      -314.870439
siesta: FreeEng =      -314.870440

siesta: Final energy (eV):
siesta:  Band Struct. =    -100.706698
siesta:       Kinetic =     216.853285
siesta:       Hartree =    8605.571098
siesta:       Edftu   =       0.000000
siesta:       Eso     =       0.000000
siesta:    Ext. field =       0.000000
siesta:   Exch.-corr. =    -101.524246
siesta:  Ion-electron =  -17403.876980
siesta:       Ion-ion =    8368.106403
siesta:       Ekinion =       0.000000
siesta:         Total =    -314.870439
siesta:         Fermi =      -3.633352

siesta: Stress tensor (static) (eV/Ang**3):
siesta:     0.002533   -0.000000    0.000000
siesta:    -0.000000    0.002533   -0.000000
siesta:     0.000000    0.000000   -0.000002

siesta: Cell volume =        542.484808 Ang**3

siesta: Pressure (static):
siesta:                Solid            Molecule  Units
siesta:          -0.00001838         -0.00001839  Ry/Bohr**3
siesta:          -0.00168802         -0.00168813  eV/Ang**3
siesta:          -2.70453873         -2.70471173  kBar
(Free)E+ p_basis*V_orbitals  =        -314.283357
(Free)Eharris+ p_basis*V_orbitals  =        -314.283357

siesta: Electric dipole (a.u.)  =    0.000000    0.000000   -0.000000
siesta: Electric dipole (Debye) =    0.000000    0.000000   -0.000000

cite: Please see "gate_G_hartree.bib" for an exhaustive BiBTeX file.
cite: Please clearly indicate Siesta version in published work: v4.1-b4-351
cite: This calculation has made use of the following articles
cite: which are encouraged to be cited in a published work.
        Primary SIESTA paper
          DOI: www.doi.org/10.1088/0953-8984/14/11/302
        Slab-dipole correction
          DOI: www.doi.org/10.1103/PhysRevB.59.12301
        Charge/Hartree gate model
          DOI: www.doi.org/10.1039/C5CP04613K

>> End of run:  22-JAN-2021  22:11:47
Job completed
