Siesta Version  : v4.1-b4-351
Architecture    : x86_64-linux-n-62-26-19
Compiler version: GNU Fortran (GCC) 9.3.0
Compiler flags  : mpifort -m64 -fPIC -O3 -march=native -ftree-vectorize -fexpensive-optimizatioons -funroll-loops -fprefetch-loop-arrays -fno-second-underscore  -flto
PP flags        : -I/dtu/sw/dcc/SL73/2020-aug/generic/build-tools/1.0/include -I/dtu/sw/dcc/SL773/2020-aug/generic/gcc/9.3.0/include -I/dtu/sw/dcc/SL73/2020-aug/generic/gcc/9.3.0/include -I/dtu/sw/dcc/SL73/2020-aug/XeonE5-2660v3/gnu/9.3.0/zlib/1.2.11/include -I/dtu/sw/dcc/SL73/2020-aug/generic/numactl/2.0.12/include -I/dtu/sw/dcc/SL73/2020-aug/XeonE5-2660v3/gnu/9.3.0/libxml2/2.9.10/include -I/dtu/sw/dcc/SL73/2020-aug/XeonE5-2660v3/gnu/9.3.0/hwloc/2.2.0/include -I/dtu/sw/dcc/SL73/2020-aug/XeonE5-2660v3/gnu/9.3.0/knem/1.1.4/include -I/dtu/sw/dcc/SL73/2020-aug/XeonE5-2660v3/gnu/9.3.0/ucx/1.8.1/include -I/dtu/sw/dcc/SL73/2020-aug/XeonE5-2660v3/gnu/9.3.0/openmpi/4.0.4/include -I/dtu/sw/dcc/SL73/2020-aug/XeonE5-2660v3/gnu/9.3.0/szip/2.1.1/include -I/dtu/sw/dcc/SL73/2020-aug/XeonE5-2660v3/gnu/9.3.0/hdf5/1.12.0/include -I/dtu/sw/dcc/SL73/2020-aug/XeonE5-2660v3/gnu/9.3.0/pnetcdf/1.12.1/include -I/dtu/sw/dcc/SL73/2020-aug/generic/gen-zlib/1.2.11/include -I/dtu/sw/dcc/SL73/2020-aug/generic/openssl/1.1.1/include -I/dtu/sw/dcc/SL73/2020-aug/generic/libssh2/1.8.2/include -I/dtu/sw/dcc/SL73/2020-aug/generic/curl/7.65.1/include -I/dtu/sw/dcc/SL73/2020-aug/XeonE5-2660v3/gnu/9.3.0/netcdf/4.7.4/include -I/dtu/sw/dcc/SL73/2020-aug/XeonE5-2660v3/gnu/9.3.0/flook/0.8.1/include -I/dtu/sw/dcc/SL73/2020-aug/XeonE5-2660v3/gnu/9.3.0/fftw/3.3.8/include -I/dtu/sw/dcc/SL73/2020-aug/XeonE5-2660v3/gnu/9.3.0/parmetis/4.0.3/include -I/dtu/sw/dcc/SL73/2020-aug/XeonE5-2660v3/gnu/9.3.0/scalapack/2.1.0/include -I/dtu/sw/dcc/SL73/2020-aug/XeonE5-2660v3/gnu/9.3.0/lapack/3.9.0/include -I/dtu/sw/dcc/SL73/2020-aug/XeonE5-2660v3/gnu/9.3.0/blis/0.7.0/include -I/dtu/sw/dcc/SL73/2020-aug/XeonE5-2660v3/gnu/9.3.0/scotch/6.0.9/include -I/dtu/sw/dcc/SL73/2020-aug/XeonE5-2660v3/gnu/9.3.0/mumps/5.3.3/include -I/dtu/sw/dcc/SL73/2020-aug/XeonE5-2660v3/gnu/9.3.0/elpa/2020.05.001/include -DSIESTA__ELPA -DMPI -DFC_HAVE_FLUSH -DFC_HAVE_ABORT -DCDF -DCDF4 -DSIESTA__FLOOK  -DNCDF -DNCDF_4 -DNCDF_PARALLEL -DTS_NOCHECKS -DSIESTA__METIS -DSIESTA__MUMPS -DSIESTA__MRRR -I/dtu/sw/dcc/SL73/2020-aug/XeonE5-2660v3/gnu/9.3.0/elpa/2020.05.001/include/elpa
Libraries       : libncdf.a libfdict.a -lnetcdff -lnetcdf -lpnetcdf -lhdf5_hl -lhdf5 -lz  -lzmuumps -lmumps_common -lesmumps -lscotch -lscotcherr -lpord -lparmetis -lmetis -lelpa -lscalapack -llapack -lblis  -L/dtu/sw/dcc/SL73/2020-aug/XeonE5-2660v3/gnu/9.3.0/flook/0.8.1/lib -Wl,-rpath=/dtu/sw/dcc/SL73/2020-aug/XeonE5-2660v3/gnu/9.3.0/flook/0.8.1/lib -lflookall -ldl  -flto -fuse-linker-plugin  -lmetis
PARALLEL version
NetCDF support
NetCDF-4 support
NetCDF-4 MPI-IO support
METIS ordering support
Lua support

* Running on 8 nodes in parallel
>> Start of run:  22-JAN-2021  23:09:22

                           ***********************       
                           *  WELCOME TO SIESTA  *       
                           ***********************       

reinit: Reading from ../graphite_vdw_df.fdf

reinit: -----------------------------------------------------------------------
reinit: System Name: Graphite. VDW-DF. Unconverged test.
reinit: -----------------------------------------------------------------------
reinit: System Label: graphite_vdw_df
reinit: -----------------------------------------------------------------------

initatom: Reading input for the pseudopotentials and atomic orbitals ----------
Species number:   1 Atomic number:    6 Label: C.vdw

Ground state valence configuration:   2s02  2p02
Reading pseudopotential information in formatted form from C.vdw.psf

Valence configuration for pseudopotential generation:
2s( 2.00) rc: 1.49
2p( 2.00) rc: 1.52
3d( 0.00) rc: 1.52
relmxkb: Read Max KB Ang. Momentum=    2 for species C.vdw

<basis_specs>
===============================================================================
C.vdw                Z=   6    Mass=  12.010        Charge= 0.17977+309
Lmxo=1 Lmxkb= 2    BasisType=split      Semic=F
L=0  Nsemic=0  Cnfigmx=2
          i=1  nzeta=2  polorb=0  (2s)
            splnorm:   0.15000    
               vcte:    0.0000    
               rinn:    0.0000    
               qcoe:    0.0000    
               qyuk:    0.0000    
               qwid:   0.10000E-01
                rcs:    0.0000      0.0000    
            lambdas:    1.0000      1.0000    
L=1  Nsemic=0  Cnfigmx=2
          i=1  nzeta=2  polorb=1  (2p)
            splnorm:   0.15000    
               vcte:    0.0000    
               rinn:    0.0000    
               qcoe:    0.0000    
               qyuk:    0.0000    
               qwid:   0.10000E-01
                rcs:    0.0000      0.0000    
            lambdas:    1.0000      1.0000    
-------------------------------------------------------------------------------
L=0  Nkbl=1  erefs: 0.17977+309
L=1  Nkbl=1  erefs: 0.17977+309
L=2  Nkbl=1  erefs: 0.17977+309
===============================================================================
</basis_specs>

Filter: Requested cutoff:  100.000000 Ry
atom: Called for C.vdw                 (Z =   6)

read_vps: Pseudopotential generation method:
read_vps: ATM3.3    Troullier-Martins                       
Valence charge for ps generation:    4.00000

xc_check: Exchange-correlation functional:
xc_check: VDW Vydrov-vanVoorhis
xc_check: WARNING: Pseudopotential generated with VDW DRSLL functional
V l=0 = -2*Zval/r beyond r=  1.7692
V l=1 = -2*Zval/r beyond r=  1.7692
V l=2 = -2*Zval/r beyond r=  1.7692
All V_l potentials equal beyond r=  1.5038
This should be close to max(r_c) in ps generation
All pots = -2*Zval/r beyond r=  1.7692

VLOCAL1: 99.0% of the norm of Vloc inside     19.196 Ry
VLOCAL1: 99.9% of the norm of Vloc inside     43.748 Ry
atom: Maximum radius for 4*pi*r*r*local-pseudopot. charge    1.81396
atom: Maximum radius for r*vlocal+2*Zval:    1.56123
GHOST: No ghost state for L =  0
GHOST: No ghost state for L =  1
GHOST: No ghost state for L =  2

KBgen: Kleinman-Bylander projectors: 
   l= 0   rc=  1.955272   el= -1.008343   Ekb=  5.232772   kbcos=  0.315267
   l= 1   rc=  1.955272   el= -0.384904   Ekb= -4.081938   kbcos= -0.351160
   l= 2   rc=  2.990984   el=  0.002326   Ekb= -0.957144   kbcos= -0.008820

KBgen: Total number of  Kleinman-Bylander projectors:    9
atom: -------------------------------------------------------------------------

atom: SANKEY-TYPE ORBITALS:
atom: Selected multiple-zeta basis: split     

SPLIT: Orbitals with angular momentum L= 0

SPLIT: Basis orbitals for state 2s

SPLIT: PAO cut-off radius determined from an
SPLIT: energy shift=  0.003675 Ry

   izeta = 1
                 lambda =    1.000000
                     rc =    4.993604
                 energy =   -1.004489
                kinetic =    0.843989
    potential(screened) =   -1.848479
       potential(ionic) =   -5.414898
PAO Filter: Cutoff used:   49.00 Ry
PAO Filter: diagnostic kin energy tol:    0.003000 Ry
PAO Filter: Nominal cutoff (before filtering):   28.33 Ry
Filter:    Number of eigenfunctions  of the
           filtering kernel (total, used)= 33  9

   izeta = 2
                 rmatch =    3.475094
              splitnorm =    0.150000
                 energy =   -0.881568
                kinetic =    1.278679
    potential(screened) =   -2.160247
       potential(ionic) =   -5.968635
PAO Filter: Cutoff used:   49.00 Ry
PAO Filter: diagnostic kin energy tol:    0.003000 Ry
PAO Filter: Nominal cutoff (before filtering):   46.75 Ry
Filter:    Number of eigenfunctions  of the
           filtering kernel (total, used)= 26  6

SPLIT: Orbitals with angular momentum L= 1

SPLIT: Basis orbitals for state 2p

SPLIT: PAO cut-off radius determined from an
SPLIT: energy shift=  0.003675 Ry

   izeta = 1
                 lambda =    1.000000
                     rc =    6.253707
                 energy =   -0.381214
                kinetic =    2.339107
    potential(screened) =   -2.720321
       potential(ionic) =   -6.125123
PAO Filter: Cutoff used:   49.00 Ry
PAO Filter: diagnostic kin energy tol:    0.003000 Ry
PAO Filter: Nominal cutoff (before filtering):   40.99 Ry
Filter:    Number of eigenfunctions  of the
           filtering kernel (total, used)= 38 12

   izeta = 2
                 rmatch =    3.745781
              splitnorm =    0.150000
                 energy =   -0.257424
                kinetic =    3.472270
    potential(screened) =   -3.729694
       potential(ionic) =   -7.523279
PAO Filter: Cutoff used:   49.00 Ry
PAO Filter: diagnostic kin energy tol:    0.003000 Ry
PAO Filter: Nominal cutoff (before filtering):   44.28 Ry
Filter:    Number of eigenfunctions  of the
           filtering kernel (total, used)= 27  6

POLgen: Perturbative polarization orbital with L=  2

POLgen: Polarization orbital for state 2p

   izeta = 1
                     rc =    6.253707
                 energy =    1.010373
                kinetic =    2.117604
    potential(screened) =   -1.107231
       potential(ionic) =   -3.839792
PAO Filter: diagnostic kin energy tol:    0.003000 Ry
PAO Filter: Nominal cutoff (before filtering):   55.61 Ry
Filter:    Number of eigenfunctions  of the
           filtering kernel (total, used)= 38 11
atom: Total number of Sankey-type orbitals: 13

atm_pop: Valence configuration (for local Pseudopot. screening):
 2s( 2.00)                                                            
 2p( 2.00)                                                            
Vna: chval, zval:    4.00000   4.00000

Vna:  Cut-off radius for the neutral-atom potential:   6.253707
VNA Filter: diagnostic kinetic energy tol:    0.003000 Ry
VNA Filter: Nominal cutoff (before filtering):   23.27 Ry
VNA Filter: Cutoff used:   100.00 Ry
Filter:    Number of eigenfunctions  of the
           filtering kernel (total, used)= 51 18

atom: _________________________________________________________________________

prinput: Basis input ----------------------------------------------------------

PAO.BasisType split     

%block ChemicalSpeciesLabel
    1    6 C.vdw                   # Species index, atomic number, species label
%endblock ChemicalSpeciesLabel

%block PAO.Basis                 # Define Basis set
C.vdw                 2                    # Species label, number of l-shells
 n=2   0   2                         # n, l, Nzeta 
   4.994      3.475   
   1.000      1.000   
 n=2   1   2 P   1                   # n, l, Nzeta, Polarization, NzetaPol
   6.254      3.746   
   1.000      1.000   
%endblock PAO.Basis

prinput: ----------------------------------------------------------------------

Dumping basis to NetCDF file C.vdw.ion.nc
coor:   Atomic-coordinates input format  =     Fractional

siesta: Atomic coordinates (Bohr) and species
siesta:      0.00000   0.00000   0.00000  1        1
siesta:      0.00000   0.00000   6.33814  1        2
siesta:     -0.00000   2.68504   0.00000  1        3
siesta:      2.32531   1.34252   6.33814  1        4

siesta: System type = bulk      

initatomlists: Number of atoms, orbitals, and projectors:      4    52    36

siesta: ******************** Simulation parameters ****************************
siesta:
siesta: The following are some of the parameters of the simulation.
siesta: A complete list of the parameters used, including default values,
siesta: can be found in file out.fdf
siesta:
redata: Spin configuration                          = none
redata: Number of spin components                   = 1
redata: Time-Reversal Symmetry                      = T
redata: Spin spiral                                 = F
redata: Long output                                 =   F
redata: Number of Atomic Species                    =        1
redata: Charge density info will appear in .RHO file
redata: Write Mulliken Pop.                         = NO
redata: Matel table size (NRTAB)                    =     1024
redata: Mesh Cutoff                                 =   100.0000 Ry
redata: Net charge of the system                    =     0.0000 |e|
redata: Min. number of SCF Iter                     =        0
redata: Max. number of SCF Iter                     =     1000
redata: SCF convergence failure will abort job
redata: SCF mix quantity                            = Hamiltonian
redata: Mix DM or H after convergence               =   F
redata: Recompute H after scf cycle                 =   F
redata: Mix DM in first SCF step                    =   T
redata: Write Pulay info on disk                    =   F
redata: New DM Occupancy tolerance                  = 0.000000000001
redata: No kicks to SCF
redata: DM Mixing Weight for Kicks                  =     0.5000
redata: Require Harris convergence for SCF          =   F
redata: Harris energy tolerance for SCF             =     0.000100 eV
redata: Require DM convergence for SCF              =   T
redata: DM tolerance for SCF                        =     0.000100
redata: Require EDM convergence for SCF             =   F
redata: EDM tolerance for SCF                       =     0.001000 eV
redata: Require H convergence for SCF               =   T
redata: Hamiltonian tolerance for SCF               =     0.001000 eV
redata: Require (free) Energy convergence for SCF   =   F
redata: (free) Energy tolerance for SCF             =     0.000100 eV
redata: Using Saved Data (generic)                  =   F
redata: Use continuation files for DM               =   F
redata: Neglect nonoverlap interactions             =   F
redata: Method of Calculation                       = Diagonalization
redata: Electronic Temperature                      =   299.9869 K
redata: Fix the spin of the system                  =   F
redata: Dynamics option                             = Single-point calculation
mix.SCF: Pulay mixing                            = Pulay
mix.SCF:    Variant                              = stable
mix.SCF:    History steps                        = 2
mix.SCF:    Linear mixing weight                 =     0.250000
mix.SCF:    Mixing weight                        =     0.250000
mix.SCF:    SVD condition                        = 0.1000E-07
redata: Save all siesta data in one NC              =   F
redata: ***********************************************************************

%block SCF.Mixers
  Pulay
%endblock SCF.Mixers

%block SCF.Mixer.Pulay
  # Mixing method
  method pulay
  variant stable

  # Mixing options
  weight 0.2500
  weight.linear 0.2500
  history 2
%endblock SCF.Mixer.Pulay

DM_history_depth set to one: no extrapolation allowed by default for geometry relaxation
Size of DM history Fstack: 1
Total number of electrons:    16.000000
Total ionic charge:    16.000000

* ProcessorY, Blocksize:    2   6


* Orbital distribution balance (max,min):    10     6

 Kpoints in:           25 . Kpoints trimmed:           25

siesta: k-grid: Number of k-points =    25
siesta: k-grid: Cutoff (effective) =     6.152 Ang
siesta: k-grid: Supercell and displacements
siesta: k-grid:    0   5   0      0.000
siesta: k-grid:    5   0   0      0.000
siesta: k-grid:    0   0   2      0.500

diag: Algorithm                                     = D&C
diag: Parallel over k                               =   F
diag: Use parallel 2D distribution                  =   T
diag: Parallel block-size                           = 6
diag: Parallel distribution                         =     2 x     4
diag: Used triangular part                          = Lower
diag: Absolute tolerance                            =  0.100E-15
diag: Orthogonalization factor                      =  0.100E-05
diag: Memory factor                                 =  1.0000

superc: Internal auxiliary supercell:     9 x     9 x     3  =     243
superc: Number of atoms, orbitals, and projectors:    972  12636   8748


ts: **************************************************************
ts: Save H and S matrices                           =    F
ts: Save DM and EDM matrices                        =    F
ts: Only save the overlap matrix S                  =    F
ts: **************************************************************

************************ Begin: TS CHECKS AND WARNINGS ************************
************************ End: TS CHECKS AND WARNINGS **************************


                     ====================================
                        Single-point calculation
                     ====================================

superc: Internal auxiliary supercell:     9 x     9 x     3  =     243
superc: Number of atoms, orbitals, and projectors:    972  12636   8748

outcell: Unit cell vectors (Ang):
        2.461000    0.000000    0.000000
       -1.230500    2.131289    0.000000
        0.000000    0.000000    6.708000

outcell: Cell vector modules (Ang)   :    2.461000    2.461000    6.708000
outcell: Cell angles (23,13,12) (deg):     90.0000     90.0000    120.0000
outcell: Cell volume (Ang**3)        :     35.1841
<dSpData1D:S at geom step 0
  <sparsity:sparsity for geom step 0
    nrows_g=52 nrows=10 sparsity=10.5270 nnzs=28465, refcount: 7>
  <dData1D:(new from dSpData1D) n=28465, refcount: 1>
refcount: 1>
new_DM -- step:     1
Initializing Density Matrix...
DM filled with atomic data:
<dSpData2D:DM initialized from atoms
  <sparsity:sparsity for geom step 0
    nrows_g=52 nrows=10 sparsity=10.5270 nnzs=28465, refcount: 8>
  <dData2D:DM n=28465 m=1, refcount: 1>
refcount: 1>
No. of atoms with KB's overlaping orbs in proc 0. Max # of overlaps:      75     507
New grid distribution:   1
           1       1:    8    1:    4    1:    6
           2       1:    8    1:    4    7:   12
           3       1:    8    1:    4   13:   18
           4       1:    8    1:    4   19:   24
           5       1:    8    5:    8    1:    6
           6       1:    8    5:    8    7:   12
           7       1:    8    5:    8   13:   18
           8       1:    8    5:    8   19:   24

InitMesh: MESH =    16 x    16 x    48 =       12288
InitMesh: (bp) =     8 x     8 x    24 =        1536
InitMesh: Mesh cutoff (required, used) =   100.000   141.514 Ry
ExtMesh (bp) on 0 =    60 x    56 x    54 =      181440
New grid distribution:   2
           1       1:    8    1:    4    1:    6
           2       1:    8    1:    4    7:   12
           3       1:    8    1:    4   13:   18
           4       1:    8    1:    4   19:   24
           5       1:    8    5:    8    1:    6
           6       1:    8    5:    8    7:   12
           7       1:    8    5:    8   13:   18
           8       1:    8    5:    8   19:   24
New grid distribution:   3
           1       1:    8    1:    4    1:    6
           2       1:    8    1:    4    7:   12
           3       1:    8    1:    4   13:   18
           4       1:    8    1:    4   19:   24
           5       1:    8    5:    8    1:    6
           6       1:    8    5:    8    7:   12
           7       1:    8    5:    8   13:   18
           8       1:    8    5:    8   19:   24
Setting up quadratic distribution...
ExtMesh (bp) on 0 =    60 x    56 x    54 =      181440
PhiOnMesh: Number of (b)points on node 0 =                  192
PhiOnMesh: nlist on node 0 =                33825

stepf: Fermi-Dirac step function

siesta: Program's energy decomposition (eV):
siesta: Ebs     =      -231.869559
siesta: Eions   =      1035.253114
siesta: Ena     =       234.649258
siesta: Ekin    =       447.642001
siesta: Enl     =       -45.755615
siesta: Eso     =         0.000000
siesta: Edftu   =         0.000000
siesta: DEna    =       -28.523911
siesta: DUscf   =         2.759711
siesta: DUext   =         0.000000
siesta: Exc     =      -193.425812
siesta: eta*DQ  =         0.000000
siesta: Emadel  =         0.000000
siesta: Emeta   =         0.000000
siesta: Emolmec =         0.000000
siesta: Ekinion =         0.000000
siesta: Eharris =      -608.288791
siesta: Etot    =      -617.907482
siesta: FreeEng =      -617.907482

        iscf     Eharris(eV)        E_KS(eV)     FreeEng(eV)     dDmax    Ef(eV) dHmax(eV)
   scf:    1     -608.288791     -617.907482     -617.907482  1.789242 -7.367362  2.826524
timer: Routine,Calls,Time,% = IterSCF        1       1.172  31.71
   scf:    2     -618.379696     -618.149985     -618.149985  0.044851 -6.825628  1.855001
   scf:    3     -618.488118     -618.347470     -618.347470  0.083397 -5.802830  0.044924
   scf:    4     -618.347467     -618.347479     -618.347479  0.001835 -5.826541  0.015144
   scf:    5     -618.347512     -618.347496     -618.347496  0.000376 -5.827774  0.011212
   scf:    6     -618.347530     -618.347514     -618.347514  0.001035 -5.831151  0.000426
   scf:    7     -618.347514     -618.347514     -618.347514  0.000011 -5.831154  0.000270

SCF Convergence by DM+H criterion
max |DM_out - DM_in|         :     0.0000105011
max |H_out - H_in|      (eV) :     0.0002696656
SCF cycle converged after 7 iterations

Using DM_out to compute the final energy and forces
No. of atoms with KB's overlaping orbs in proc 0. Max # of overlaps:      75     507

siesta: E_KS(eV) =             -618.3475

siesta: E_KS - E_eggbox =      -618.3475

siesta: Atomic forces (eV/Ang):
----------------------------------------
   Tot   -0.000001    0.000001   -0.000008
----------------------------------------
   Max    0.001565
   Res    0.000826    sqrt( Sum f_i^2 / 3N )
----------------------------------------
   Max    0.001565    constrained

Stress tensor Voigt[x,y,z,yz,xz,xy] (kbar):     -243.65     -244.43       27.02       -0.00        0.00       -0.67
(Free)E + p*V (eV/cell)     -614.9726
Target enthalpy (eV/cell)     -618.3475

siesta: Program's energy decomposition (eV):
siesta: Ebs     =      -242.639660
siesta: Eions   =      1035.253114
siesta: Ena     =       234.649258
siesta: Ekin    =       433.733116
siesta: Enl     =       -42.696750
siesta: Eso     =         0.000000
siesta: Edftu   =         0.000000
siesta: DEna    =       -19.633069
siesta: DUscf   =         1.698970
siesta: DUext   =         0.000000
siesta: Exc     =      -190.845927
siesta: eta*DQ  =         0.000000
siesta: Emadel  =         0.000000
siesta: Emeta   =         0.000000
siesta: Emolmec =         0.000000
siesta: Ekinion =         0.000000
siesta: Eharris =      -618.347514
siesta: Etot    =      -618.347514
siesta: FreeEng =      -618.347514

siesta: Final energy (eV):
siesta:  Band Struct. =    -242.639660
siesta:       Kinetic =     433.733116
siesta:       Hartree =     179.675222
siesta:       Edftu   =       0.000000
siesta:       Eso     =       0.000000
siesta:    Ext. field =       0.000000
siesta:   Exch.-corr. =    -190.845927
siesta:  Ion-electron =    -787.987750
siesta:       Ion-ion =    -252.922176
siesta:       Ekinion =       0.000000
siesta:         Total =    -618.347514
siesta:         Fermi =      -5.831154

siesta: Stress tensor (static) (eV/Ang**3):
siesta:    -0.152073   -0.000419    0.000000
siesta:    -0.000419   -0.152557   -0.000000
siesta:     0.000000   -0.000000    0.016864

siesta: Cell volume =         35.184138 Ang**3

siesta: Pressure (static):
siesta:                Solid            Molecule  Units
siesta:           0.00104471          0.00104498  Ry/Bohr**3
siesta:           0.09592172          0.09594606  eV/Ang**3
siesta:         153.68519320        153.72419031  kBar
(Free)E+ p_basis*V_orbitals  =        -616.152594
(Free)Eharris+ p_basis*V_orbitals  =        -616.152594

cite: Please see "graphite_vdw_df.bib" for an exhaustive BiBTeX file.
cite: Please clearly indicate Siesta version in published work: v4.1-b4-351
cite: This calculation has made use of the following articles
cite: which are encouraged to be cited in a published work.
        Primary SIESTA paper
          DOI: www.doi.org/10.1088/0953-8984/14/11/302


WARNING: alloc-realloc-dealloc name mismatch
         Name: atomlist isa
         Size:               -16. Bytes
         Node:     0
         Subsequent mismatches will not be reported
>> End of run:  22-JAN-2021  23:09:32
Job completed
