Siesta Version  : v4.1-b4-351
Architecture    : x86_64-linux-n-62-26-19
Compiler version: GNU Fortran (GCC) 9.3.0
Compiler flags  : mpifort -m64 -fPIC -O3 -march=native -ftree-vectorize -fexpensive-optimizatioons -funroll-loops -fprefetch-loop-arrays -fno-second-underscore  -flto
PP flags        : -I/dtu/sw/dcc/SL73/2020-aug/generic/build-tools/1.0/include -I/dtu/sw/dcc/SL773/2020-aug/generic/gcc/9.3.0/include -I/dtu/sw/dcc/SL73/2020-aug/generic/gcc/9.3.0/include -I/dtu/sw/dcc/SL73/2020-aug/XeonE5-2660v3/gnu/9.3.0/zlib/1.2.11/include -I/dtu/sw/dcc/SL73/2020-aug/generic/numactl/2.0.12/include -I/dtu/sw/dcc/SL73/2020-aug/XeonE5-2660v3/gnu/9.3.0/libxml2/2.9.10/include -I/dtu/sw/dcc/SL73/2020-aug/XeonE5-2660v3/gnu/9.3.0/hwloc/2.2.0/include -I/dtu/sw/dcc/SL73/2020-aug/XeonE5-2660v3/gnu/9.3.0/knem/1.1.4/include -I/dtu/sw/dcc/SL73/2020-aug/XeonE5-2660v3/gnu/9.3.0/ucx/1.8.1/include -I/dtu/sw/dcc/SL73/2020-aug/XeonE5-2660v3/gnu/9.3.0/openmpi/4.0.4/include -I/dtu/sw/dcc/SL73/2020-aug/XeonE5-2660v3/gnu/9.3.0/szip/2.1.1/include -I/dtu/sw/dcc/SL73/2020-aug/XeonE5-2660v3/gnu/9.3.0/hdf5/1.12.0/include -I/dtu/sw/dcc/SL73/2020-aug/XeonE5-2660v3/gnu/9.3.0/pnetcdf/1.12.1/include -I/dtu/sw/dcc/SL73/2020-aug/generic/gen-zlib/1.2.11/include -I/dtu/sw/dcc/SL73/2020-aug/generic/openssl/1.1.1/include -I/dtu/sw/dcc/SL73/2020-aug/generic/libssh2/1.8.2/include -I/dtu/sw/dcc/SL73/2020-aug/generic/curl/7.65.1/include -I/dtu/sw/dcc/SL73/2020-aug/XeonE5-2660v3/gnu/9.3.0/netcdf/4.7.4/include -I/dtu/sw/dcc/SL73/2020-aug/XeonE5-2660v3/gnu/9.3.0/flook/0.8.1/include -I/dtu/sw/dcc/SL73/2020-aug/XeonE5-2660v3/gnu/9.3.0/fftw/3.3.8/include -I/dtu/sw/dcc/SL73/2020-aug/XeonE5-2660v3/gnu/9.3.0/parmetis/4.0.3/include -I/dtu/sw/dcc/SL73/2020-aug/XeonE5-2660v3/gnu/9.3.0/scalapack/2.1.0/include -I/dtu/sw/dcc/SL73/2020-aug/XeonE5-2660v3/gnu/9.3.0/lapack/3.9.0/include -I/dtu/sw/dcc/SL73/2020-aug/XeonE5-2660v3/gnu/9.3.0/blis/0.7.0/include -I/dtu/sw/dcc/SL73/2020-aug/XeonE5-2660v3/gnu/9.3.0/scotch/6.0.9/include -I/dtu/sw/dcc/SL73/2020-aug/XeonE5-2660v3/gnu/9.3.0/mumps/5.3.3/include -I/dtu/sw/dcc/SL73/2020-aug/XeonE5-2660v3/gnu/9.3.0/elpa/2020.05.001/include -DSIESTA__ELPA -DMPI -DFC_HAVE_FLUSH -DFC_HAVE_ABORT -DCDF -DCDF4 -DSIESTA__FLOOK  -DNCDF -DNCDF_4 -DNCDF_PARALLEL -DTS_NOCHECKS -DSIESTA__METIS -DSIESTA__MUMPS -DSIESTA__MRRR -I/dtu/sw/dcc/SL73/2020-aug/XeonE5-2660v3/gnu/9.3.0/elpa/2020.05.001/include/elpa
Libraries       : libncdf.a libfdict.a -lnetcdff -lnetcdf -lpnetcdf -lhdf5_hl -lhdf5 -lz  -lzmuumps -lmumps_common -lesmumps -lscotch -lscotcherr -lpord -lparmetis -lmetis -lelpa -lscalapack -llapack -lblis  -L/dtu/sw/dcc/SL73/2020-aug/XeonE5-2660v3/gnu/9.3.0/flook/0.8.1/lib -Wl,-rpath=/dtu/sw/dcc/SL73/2020-aug/XeonE5-2660v3/gnu/9.3.0/flook/0.8.1/lib -lflookall -ldl  -flto -fuse-linker-plugin  -lmetis
PARALLEL version
NetCDF support
NetCDF-4 support
NetCDF-4 MPI-IO support
METIS ordering support
Lua support

* Running on 8 nodes in parallel
>> Start of run:  22-JAN-2021  22:13:54

                           ***********************       
                           *  WELCOME TO SIESTA  *       
                           ***********************       

reinit: Reading from ../graphite_c6_full.fdf

reinit: -----------------------------------------------------------------------
reinit: System Name: 
reinit: -----------------------------------------------------------------------
reinit: System Label: graphite_c6_full
reinit: -----------------------------------------------------------------------
Reading two-body potentials
C6 - two-body potential between 1 and 1

initatom: Reading input for the pseudopotentials and atomic orbitals ----------
Species number:   1 Atomic number:    6 Label: C.pbe

Ground state valence configuration:   2s02  2p02
Reading pseudopotential information in formatted form from C.pbe.psf

Valence configuration for pseudopotential generation:
2s( 2.00) rc: 1.49
2p( 2.00) rc: 1.52
3d( 0.00) rc: 1.52
relmxkb: Read Max KB Ang. Momentum=    2 for species C.pbe

<basis_specs>
===============================================================================
C.pbe                Z=   6    Mass=  12.010        Charge= 0.17977+309
Lmxo=1 Lmxkb= 2    BasisType=split      Semic=F
L=0  Nsemic=0  Cnfigmx=2
          i=1  nzeta=3  polorb=0  (2s)
            splnorm:   0.30000    
               vcte:    50.000    
               rinn:  -0.80000    
               qcoe:    0.0000    
               qyuk:    0.0000    
               qwid:   0.10000E-01
                rcs:    0.0000      0.0000      0.0000    
            lambdas:    1.0000      1.0000      1.0000    
L=1  Nsemic=0  Cnfigmx=2
          i=1  nzeta=3  polorb=2  (2p)
            splnorm:   0.30000    
               vcte:    50.000    
               rinn:  -0.80000    
               qcoe:    0.0000    
               qyuk:    0.0000    
               qwid:   0.10000E-01
                rcs:    0.0000      0.0000      0.0000    
            lambdas:    1.0000      1.0000      1.0000    
-------------------------------------------------------------------------------
L=0  Nkbl=1  erefs: 0.17977+309
L=1  Nkbl=1  erefs: 0.17977+309
L=2  Nkbl=1  erefs: 0.17977+309
===============================================================================
</basis_specs>

atom: Called for C.pbe                 (Z =   6)

read_vps: Pseudopotential generation method:
read_vps: ATM 3.2.2 Troullier-Martins                       
Valence charge for ps generation:    4.00000

read_vps: Pseudopotential includes a core correction:
read_vps: Pseudo-core for xc-correction

xc_check: Exchange-correlation functional:
xc_check: GGA Perdew, Burke & Ernzerhof 1996
V l=0 = -2*Zval/r beyond r=  1.4666
V l=1 = -2*Zval/r beyond r=  1.5038
V l=2 = -2*Zval/r beyond r=  1.5038
All V_l potentials equal beyond r=  1.5038
This should be close to max(r_c) in ps generation
All pots = -2*Zval/r beyond r=  1.5038

VLOCAL1: 99.0% of the norm of Vloc inside     19.196 Ry
VLOCAL1: 99.9% of the norm of Vloc inside     43.748 Ry
atom: Maximum radius for 4*pi*r*r*local-pseudopot. charge    1.81396
atom: Maximum radius for r*vlocal+2*Zval:    1.56123
GHOST: No ghost state for L =  0
GHOST: No ghost state for L =  1
GHOST: No ghost state for L =  2

KBgen: Kleinman-Bylander projectors: 
   l= 0   rc=  1.682861   el= -1.009802   Ekb=  5.530688   kbcos=  0.309203
   l= 1   rc=  1.682861   el= -0.388707   Ekb= -3.901042   kbcos= -0.358653
   l= 2   rc=  1.769164   el=  0.001971   Ekb= -0.965319   kbcos= -0.008918

KBgen: Total number of  Kleinman-Bylander projectors:    9
atom: -------------------------------------------------------------------------

atom: SANKEY-TYPE ORBITALS:
atom: Selected multiple-zeta basis: split     

SPLIT: Orbitals with angular momentum L= 0

SPLIT: Basis orbitals for state 2s

SPLIT: PAO cut-off radius determined from an
SPLIT: energy shift=  0.002500 Ry

   izeta = 1
                 lambda =    1.000000
                     rc =    5.249652
                 energy =   -1.006063
                kinetic =    0.848579
    potential(screened) =   -1.854641
       potential(ionic) =   -5.411046

   izeta = 2
                 rmatch =    2.917126
              splitnorm =    0.300000
                 energy =   -0.692240
                kinetic =    1.629846
    potential(screened) =   -2.322086
       potential(ionic) =   -6.217211

   izeta = 3
                 rmatch =    3.475094
              splitnorm =    0.150000
                 energy =   -0.875985
                kinetic =    1.293480
    potential(screened) =   -2.169465
       potential(ionic) =   -5.963906

SPLIT: Orbitals with angular momentum L= 1

SPLIT: Basis orbitals for state 2p

SPLIT: PAO cut-off radius determined from an
SPLIT: energy shift=  0.002500 Ry

   izeta = 1
                 lambda =    1.000000
                     rc =    6.574363
                 energy =   -0.384946
                kinetic =    2.366548
    potential(screened) =   -2.751494
       potential(ionic) =   -6.161480

   izeta = 2
                 rmatch =    2.917126
              splitnorm =    0.300000
                 energy =   -0.050508
                kinetic =    4.454985
    potential(screened) =   -4.505493
       potential(ionic) =   -8.466771

   izeta = 3
                 rmatch =    3.699245
              splitnorm =    0.150000
                 energy =   -0.256687
                kinetic =    3.508828
    potential(screened) =   -3.765515
       potential(ionic) =   -7.552009

POLgen: Perturbative polarization orbital with L=  2

POLgen: Polarization orbital for state 2p

   izeta = 1
                     rc =    6.574363
                 energy =    1.044923
                kinetic =    2.180482
    potential(screened) =   -1.135559
       potential(ionic) =   -3.902866

POLgen: Polarization orbital for state 2p

   izeta = 2
                 rmatch =    3.937853
              splitnorm =    0.300000
                 energy =    1.980112
                kinetic =    3.916515
    potential(screened) =   -1.936403
       potential(ionic) =   -5.266232
atom: Total number of Sankey-type orbitals: 22

atm_pop: Valence configuration (for local Pseudopot. screening):
 2s( 2.00)                                                            
 2p( 2.00)                                                            
Vna: chval, zval:    4.00000   4.00000

Vna:  Cut-off radius for the neutral-atom potential:   6.574363
comcore: Pseudo-core radius Rcore=  1.791422

atom: _________________________________________________________________________

prinput: Basis input ----------------------------------------------------------

PAO.BasisType split     

%block ChemicalSpeciesLabel
    1    6 C.pbe                   # Species index, atomic number, species label
%endblock ChemicalSpeciesLabel

%block PAO.Basis                 # Define Basis set
C.pbe                 2                    # Species label, number of l-shells
 n=2   0   3                         # n, l, Nzeta 
   5.250      2.917      3.475   
   1.000      1.000      1.000   
 n=2   1   3 P   2                   # n, l, Nzeta, Polarization, NzetaPol
   6.574      2.917      3.699   
   1.000      1.000      1.000   
%endblock PAO.Basis

prinput: ----------------------------------------------------------------------

Dumping basis to NetCDF file C.pbe.ion.nc
coor:   Atomic-coordinates input format  =     Fractional

siesta: Atomic coordinates (Bohr) and species
siesta:      0.00000   0.00000   0.00000  1        1
siesta:      0.00000   0.00000   6.33814  1        2
siesta:     -0.00000   2.68504   0.00000  1        3
siesta:      2.32531   1.34252   6.33814  1        4

siesta: System type = bulk      

initatomlists: Number of atoms, orbitals, and projectors:      4    88    36

siesta: ******************** Simulation parameters ****************************
siesta:
siesta: The following are some of the parameters of the simulation.
siesta: A complete list of the parameters used, including default values,
siesta: can be found in file out.fdf
siesta:
redata: Spin configuration                          = none
redata: Number of spin components                   = 1
redata: Time-Reversal Symmetry                      = T
redata: Spin spiral                                 = F
redata: Long output                                 =   T
redata: Number of Atomic Species                    =        1
redata: Charge density info will appear in .RHO file
redata: Write Mulliken Pop.                         = Atomic and Orbital charges
redata: Matel table size (NRTAB)                    =     1024
redata: Mesh Cutoff                                 =   300.0000 Ry
redata: Net charge of the system                    =     0.0000 |e|
redata: Min. number of SCF Iter                     =        0
redata: Max. number of SCF Iter                     =     1000
redata: SCF convergence failure will abort job
redata: SCF mix quantity                            = Hamiltonian
redata: Mix DM or H after convergence               =   F
redata: Recompute H after scf cycle                 =   F
redata: Mix DM in first SCF step                    =   T
redata: Write Pulay info on disk                    =   F
redata: New DM Occupancy tolerance                  = 0.000000000001
redata: No kicks to SCF
redata: DM Mixing Weight for Kicks                  =     0.5000
redata: Require Harris convergence for SCF          =   F
redata: Harris energy tolerance for SCF             =     0.000100 eV
redata: Require DM convergence for SCF              =   T
redata: DM tolerance for SCF                        =     0.000100
redata: Require EDM convergence for SCF             =   F
redata: EDM tolerance for SCF                       =     0.001000 eV
redata: Require H convergence for SCF               =   T
redata: Hamiltonian tolerance for SCF               =     0.001000 eV
redata: Require (free) Energy convergence for SCF   =   F
redata: (free) Energy tolerance for SCF             =     0.000100 eV
redata: Using Saved Data (generic)                  =   T
redata: Use continuation files for DM               =   T
redata: Neglect nonoverlap interactions             =   F
redata: Method of Calculation                       = Diagonalization
redata: Electronic Temperature                      =     0.0000 K
redata: Fix the spin of the system                  =   F
redata: Dynamics option                             = CG coord. optimization
redata: Variable cell                               =   T
redata: Use continuation files for CG               =   T
redata: Max atomic displ per move                   =     0.1058 Ang
redata: Maximum number of optimization moves        =      100
redata: Force tolerance                             =     0.0100 eV/Ang
redata: Stress tolerance                            =     0.0200 GPa
mix.SCF: Pulay mixing                            = Pulay
mix.SCF:    Variant                              = stable
mix.SCF:    History steps                        = 5
mix.SCF:    Linear mixing weight                 =     0.300000
mix.SCF:    Mixing weight                        =     0.300000
mix.SCF:    SVD condition                        = 0.1000E-07
redata: Save all siesta data in one NC              =   F
redata: ***********************************************************************

%block SCF.Mixers
  Pulay
%endblock SCF.Mixers

%block SCF.Mixer.Pulay
  # Mixing method
  method pulay
  variant stable

  # Mixing options
  weight 0.3000
  weight.linear 0.3000
  history 5
%endblock SCF.Mixer.Pulay

DM_history_depth set to one: no extrapolation allowed by default for geometry relaxation
Size of DM history Fstack: 1
Total number of electrons:    16.000000
Total ionic charge:    16.000000

* ProcessorY, Blocksize:    2  11


* Orbital distribution balance (max,min):    11    11

 Kpoints in:          490 . Kpoints trimmed:          490

siesta: k-point coordinates (Bohr**-1) and weights:
siesta:    1   -0.530767   -0.250722   -0.198266       0.002041
siesta:    2   -0.434264   -0.195006   -0.198266       0.002041
siesta:    3   -0.337761   -0.139290   -0.198266       0.002041
siesta:    4   -0.241258   -0.083574   -0.198266       0.002041
siesta:    5   -0.144755   -0.027858   -0.198266       0.002041
siesta:    6   -0.048252    0.027858   -0.198266       0.002041
siesta:    7    0.048252    0.083574   -0.198266       0.002041
siesta:    8    0.144755    0.139290   -0.198266       0.002041
siesta:    9    0.241258    0.195006   -0.198266       0.002041
siesta:   10    0.337761    0.250722   -0.198266       0.002041
siesta:   11    0.434264    0.306438   -0.198266       0.002041
siesta:   12    0.530767    0.362155   -0.198266       0.002041
siesta:   13    0.627270    0.417871   -0.198266       0.002041
siesta:   14   -0.627270   -0.306438   -0.198266       0.002041
siesta:   15   -0.530767   -0.139290   -0.198266       0.002041
siesta:   16   -0.434264   -0.083574   -0.198266       0.002041
siesta:   17   -0.337761   -0.027858   -0.198266       0.002041
siesta:   18   -0.241258    0.027858   -0.198266       0.002041
siesta:   19   -0.144755    0.083574   -0.198266       0.002041
siesta:   20   -0.048252    0.139290   -0.198266       0.002041
siesta:   21    0.048252    0.195006   -0.198266       0.002041
siesta:   22    0.144755    0.250722   -0.198266       0.002041
siesta:   23    0.241258    0.306438   -0.198266       0.002041
siesta:   24    0.337761    0.362155   -0.198266       0.002041
siesta:   25    0.434264    0.417871   -0.198266       0.002041
siesta:   26    0.530767    0.473587   -0.198266       0.002041
siesta:   27    0.627270    0.529303   -0.198266       0.002041
siesta:   28   -0.627270   -0.195006   -0.198266       0.002041
siesta:   29   -0.530767   -0.027858   -0.198266       0.002041
siesta:   30   -0.434264    0.027858   -0.198266       0.002041
siesta:   31   -0.337761    0.083574   -0.198266       0.002041
siesta:   32   -0.241258    0.139290   -0.198266       0.002041
siesta:   33   -0.144755    0.195006   -0.198266       0.002041
siesta:   34   -0.048252    0.250722   -0.198266       0.002041
siesta:   35    0.048252    0.306438   -0.198266       0.002041
siesta:   36    0.144755    0.362155   -0.198266       0.002041
siesta:   37    0.241258    0.417871   -0.198266       0.002041
siesta:   38    0.337761    0.473587   -0.198266       0.002041
siesta:   39    0.434264    0.529303   -0.198266       0.002041
siesta:   40    0.530767    0.585019   -0.198266       0.002041
siesta:   41    0.627270    0.640735   -0.198266       0.002041
siesta:   42   -0.627270   -0.083574   -0.198266       0.002041
siesta:   43   -0.530767    0.083574   -0.198266       0.002041
siesta:   44   -0.434264    0.139290   -0.198266       0.002041
siesta:   45   -0.337761    0.195006   -0.198266       0.002041
siesta:   46   -0.241258    0.250722   -0.198266       0.002041
siesta:   47   -0.144755    0.306438   -0.198266       0.002041
siesta:   48   -0.048252    0.362155   -0.198266       0.002041
siesta:   49    0.048252    0.417871   -0.198266       0.002041
siesta:   50    0.144755    0.473587   -0.198266       0.002041
siesta:   51    0.241258    0.529303   -0.198266       0.002041
siesta:   52    0.337761    0.585019   -0.198266       0.002041
siesta:   53    0.434264    0.640735   -0.198266       0.002041
siesta:   54    0.530767    0.696451   -0.198266       0.002041
siesta:   55    0.627270    0.752167   -0.198266       0.002041
siesta:   56   -0.627270    0.027858   -0.198266       0.002041
siesta:   57   -0.530767    0.195006   -0.198266       0.002041
siesta:   58   -0.434264    0.250722   -0.198266       0.002041
siesta:   59   -0.337761    0.306438   -0.198266       0.002041
siesta:   60   -0.241258    0.362155   -0.198266       0.002041
siesta:   61   -0.144755    0.417871   -0.198266       0.002041
siesta:   62   -0.048252    0.473587   -0.198266       0.002041
siesta:   63    0.048252    0.529303   -0.198266       0.002041
siesta:   64    0.144755    0.585019   -0.198266       0.002041
siesta:   65    0.241258    0.640735   -0.198266       0.002041
siesta:   66    0.337761    0.696451   -0.198266       0.002041
siesta:   67    0.434264    0.752167   -0.198266       0.002041
siesta:   68    0.530767    0.807883   -0.198266       0.002041
siesta:   69    0.627270    0.863599   -0.198266       0.002041
siesta:   70   -0.627270    0.139290   -0.198266       0.002041
siesta:   71   -0.530767    0.306438   -0.198266       0.002041
siesta:   72   -0.434264    0.362155   -0.198266       0.002041
siesta:   73   -0.337761    0.417871   -0.198266       0.002041
siesta:   74   -0.241258    0.473587   -0.198266       0.002041
siesta:   75   -0.144755    0.529303   -0.198266       0.002041
siesta:   76   -0.048252    0.585019   -0.198266       0.002041
siesta:   77    0.048252    0.640735   -0.198266       0.002041
siesta:   78    0.144755    0.696451   -0.198266       0.002041
siesta:   79    0.241258    0.752167   -0.198266       0.002041
siesta:   80    0.337761    0.807883   -0.198266       0.002041
siesta:   81    0.434264    0.863599   -0.198266       0.002041
siesta:   82    0.530767    0.919315   -0.198266       0.002041
siesta:   83    0.627270    0.975031   -0.198266       0.002041
siesta:   84   -0.627270    0.250722   -0.198266       0.002041
siesta:   85   -0.530767    0.417871   -0.198266       0.002041
siesta:   86   -0.434264    0.473587   -0.198266       0.002041
siesta:   87   -0.337761    0.529303   -0.198266       0.002041
siesta:   88   -0.241258    0.585019   -0.198266       0.002041
siesta:   89   -0.144755    0.640735   -0.198266       0.002041
siesta:   90   -0.048252    0.696451   -0.198266       0.002041
siesta:   91    0.048252    0.752167   -0.198266       0.002041
siesta:   92    0.144755    0.807883   -0.198266       0.002041
siesta:   93    0.241258    0.863599   -0.198266       0.002041
siesta:   94    0.337761    0.919315   -0.198266       0.002041
siesta:   95    0.434264    0.975031   -0.198266       0.002041
siesta:   96    0.530767    1.030747   -0.198266       0.002041
siesta:   97    0.627270    1.086464   -0.198266       0.002041
siesta:   98   -0.627270    0.362155   -0.198266       0.002041
siesta:   99   -0.530767   -0.250722   -0.099133       0.002041
siesta:  100   -0.434264   -0.195006   -0.099133       0.002041
siesta:  101   -0.337761   -0.139290   -0.099133       0.002041
siesta:  102   -0.241258   -0.083574   -0.099133       0.002041
siesta:  103   -0.144755   -0.027858   -0.099133       0.002041
siesta:  104   -0.048252    0.027858   -0.099133       0.002041
siesta:  105    0.048252    0.083574   -0.099133       0.002041
siesta:  106    0.144755    0.139290   -0.099133       0.002041
siesta:  107    0.241258    0.195006   -0.099133       0.002041
siesta:  108    0.337761    0.250722   -0.099133       0.002041
siesta:  109    0.434264    0.306438   -0.099133       0.002041
siesta:  110    0.530767    0.362155   -0.099133       0.002041
siesta:  111    0.627270    0.417871   -0.099133       0.002041
siesta:  112   -0.627270   -0.306438   -0.099133       0.002041
siesta:  113   -0.530767   -0.139290   -0.099133       0.002041
siesta:  114   -0.434264   -0.083574   -0.099133       0.002041
siesta:  115   -0.337761   -0.027858   -0.099133       0.002041
siesta:  116   -0.241258    0.027858   -0.099133       0.002041
siesta:  117   -0.144755    0.083574   -0.099133       0.002041
siesta:  118   -0.048252    0.139290   -0.099133       0.002041
siesta:  119    0.048252    0.195006   -0.099133       0.002041
siesta:  120    0.144755    0.250722   -0.099133       0.002041
siesta:  121    0.241258    0.306438   -0.099133       0.002041
siesta:  122    0.337761    0.362155   -0.099133       0.002041
siesta:  123    0.434264    0.417871   -0.099133       0.002041
siesta:  124    0.530767    0.473587   -0.099133       0.002041
siesta:  125    0.627270    0.529303   -0.099133       0.002041
siesta:  126   -0.627270   -0.195006   -0.099133       0.002041
siesta:  127   -0.530767   -0.027858   -0.099133       0.002041
siesta:  128   -0.434264    0.027858   -0.099133       0.002041
siesta:  129   -0.337761    0.083574   -0.099133       0.002041
siesta:  130   -0.241258    0.139290   -0.099133       0.002041
siesta:  131   -0.144755    0.195006   -0.099133       0.002041
siesta:  132   -0.048252    0.250722   -0.099133       0.002041
siesta:  133    0.048252    0.306438   -0.099133       0.002041
siesta:  134    0.144755    0.362155   -0.099133       0.002041
siesta:  135    0.241258    0.417871   -0.099133       0.002041
siesta:  136    0.337761    0.473587   -0.099133       0.002041
siesta:  137    0.434264    0.529303   -0.099133       0.002041
siesta:  138    0.530767    0.585019   -0.099133       0.002041
siesta:  139    0.627270    0.640735   -0.099133       0.002041
siesta:  140   -0.627270   -0.083574   -0.099133       0.002041
siesta:  141   -0.530767    0.083574   -0.099133       0.002041
siesta:  142   -0.434264    0.139290   -0.099133       0.002041
siesta:  143   -0.337761    0.195006   -0.099133       0.002041
siesta:  144   -0.241258    0.250722   -0.099133       0.002041
siesta:  145   -0.144755    0.306438   -0.099133       0.002041
siesta:  146   -0.048252    0.362155   -0.099133       0.002041
siesta:  147    0.048252    0.417871   -0.099133       0.002041
siesta:  148    0.144755    0.473587   -0.099133       0.002041
siesta:  149    0.241258    0.529303   -0.099133       0.002041
siesta:  150    0.337761    0.585019   -0.099133       0.002041
siesta:  151    0.434264    0.640735   -0.099133       0.002041
siesta:  152    0.530767    0.696451   -0.099133       0.002041
siesta:  153    0.627270    0.752167   -0.099133       0.002041
siesta:  154   -0.627270    0.027858   -0.099133       0.002041
siesta:  155   -0.530767    0.195006   -0.099133       0.002041
siesta:  156   -0.434264    0.250722   -0.099133       0.002041
siesta:  157   -0.337761    0.306438   -0.099133       0.002041
siesta:  158   -0.241258    0.362155   -0.099133       0.002041
siesta:  159   -0.144755    0.417871   -0.099133       0.002041
siesta:  160   -0.048252    0.473587   -0.099133       0.002041
siesta:  161    0.048252    0.529303   -0.099133       0.002041
siesta:  162    0.144755    0.585019   -0.099133       0.002041
siesta:  163    0.241258    0.640735   -0.099133       0.002041
siesta:  164    0.337761    0.696451   -0.099133       0.002041
siesta:  165    0.434264    0.752167   -0.099133       0.002041
siesta:  166    0.530767    0.807883   -0.099133       0.002041
siesta:  167    0.627270    0.863599   -0.099133       0.002041
siesta:  168   -0.627270    0.139290   -0.099133       0.002041
siesta:  169   -0.530767    0.306438   -0.099133       0.002041
siesta:  170   -0.434264    0.362155   -0.099133       0.002041
siesta:  171   -0.337761    0.417871   -0.099133       0.002041
siesta:  172   -0.241258    0.473587   -0.099133       0.002041
siesta:  173   -0.144755    0.529303   -0.099133       0.002041
siesta:  174   -0.048252    0.585019   -0.099133       0.002041
siesta:  175    0.048252    0.640735   -0.099133       0.002041
siesta:  176    0.144755    0.696451   -0.099133       0.002041
siesta:  177    0.241258    0.752167   -0.099133       0.002041
siesta:  178    0.337761    0.807883   -0.099133       0.002041
siesta:  179    0.434264    0.863599   -0.099133       0.002041
siesta:  180    0.530767    0.919315   -0.099133       0.002041
siesta:  181    0.627270    0.975031   -0.099133       0.002041
siesta:  182   -0.627270    0.250722   -0.099133       0.002041
siesta:  183   -0.530767    0.417871   -0.099133       0.002041
siesta:  184   -0.434264    0.473587   -0.099133       0.002041
siesta:  185   -0.337761    0.529303   -0.099133       0.002041
siesta:  186   -0.241258    0.585019   -0.099133       0.002041
siesta:  187   -0.144755    0.640735   -0.099133       0.002041
siesta:  188   -0.048252    0.696451   -0.099133       0.002041
siesta:  189    0.048252    0.752167   -0.099133       0.002041
siesta:  190    0.144755    0.807883   -0.099133       0.002041
siesta:  191    0.241258    0.863599   -0.099133       0.002041
siesta:  192    0.337761    0.919315   -0.099133       0.002041
siesta:  193    0.434264    0.975031   -0.099133       0.002041
siesta:  194    0.530767    1.030747   -0.099133       0.002041
siesta:  195    0.627270    1.086464   -0.099133       0.002041
siesta:  196   -0.627270    0.362155   -0.099133       0.002041
siesta:  197   -0.530767   -0.250722    0.000000       0.002041
siesta:  198   -0.434264   -0.195006    0.000000       0.002041
siesta:  199   -0.337761   -0.139290    0.000000       0.002041
siesta:  200   -0.241258   -0.083574    0.000000       0.002041
siesta:  201   -0.144755   -0.027858    0.000000       0.002041
siesta:  202   -0.048252    0.027858    0.000000       0.002041
siesta:  203    0.048252    0.083574    0.000000       0.002041
siesta:  204    0.144755    0.139290    0.000000       0.002041
siesta:  205    0.241258    0.195006    0.000000       0.002041
siesta:  206    0.337761    0.250722    0.000000       0.002041
siesta:  207    0.434264    0.306438    0.000000       0.002041
siesta:  208    0.530767    0.362155    0.000000       0.002041
siesta:  209    0.627270    0.417871    0.000000       0.002041
siesta:  210   -0.627270   -0.306438    0.000000       0.002041
siesta:  211   -0.530767   -0.139290    0.000000       0.002041
siesta:  212   -0.434264   -0.083574    0.000000       0.002041
siesta:  213   -0.337761   -0.027858    0.000000       0.002041
siesta:  214   -0.241258    0.027858    0.000000       0.002041
siesta:  215   -0.144755    0.083574    0.000000       0.002041
siesta:  216   -0.048252    0.139290    0.000000       0.002041
siesta:  217    0.048252    0.195006    0.000000       0.002041
siesta:  218    0.144755    0.250722    0.000000       0.002041
siesta:  219    0.241258    0.306438    0.000000       0.002041
siesta:  220    0.337761    0.362155    0.000000       0.002041
siesta:  221    0.434264    0.417871    0.000000       0.002041
siesta:  222    0.530767    0.473587    0.000000       0.002041
siesta:  223    0.627270    0.529303    0.000000       0.002041
siesta:  224   -0.627270   -0.195006    0.000000       0.002041
siesta:  225   -0.530767   -0.027858    0.000000       0.002041
siesta:  226   -0.434264    0.027858    0.000000       0.002041
siesta:  227   -0.337761    0.083574    0.000000       0.002041
siesta:  228   -0.241258    0.139290    0.000000       0.002041
siesta:  229   -0.144755    0.195006    0.000000       0.002041
siesta:  230   -0.048252    0.250722    0.000000       0.002041
siesta:  231    0.048252    0.306438    0.000000       0.002041
siesta:  232    0.144755    0.362155    0.000000       0.002041
siesta:  233    0.241258    0.417871    0.000000       0.002041
siesta:  234    0.337761    0.473587    0.000000       0.002041
siesta:  235    0.434264    0.529303    0.000000       0.002041
siesta:  236    0.530767    0.585019    0.000000       0.002041
siesta:  237    0.627270    0.640735    0.000000       0.002041
siesta:  238   -0.627270   -0.083574    0.000000       0.002041
siesta:  239   -0.530767    0.083574    0.000000       0.002041
siesta:  240   -0.434264    0.139290    0.000000       0.002041
siesta:  241   -0.337761    0.195006    0.000000       0.002041
siesta:  242   -0.241258    0.250722    0.000000       0.002041
siesta:  243   -0.144755    0.306438    0.000000       0.002041
siesta:  244   -0.048252    0.362155    0.000000       0.002041
siesta:  245    0.048252    0.417871    0.000000       0.002041
siesta:  246    0.144755    0.473587    0.000000       0.002041
siesta:  247    0.241258    0.529303    0.000000       0.002041
siesta:  248    0.337761    0.585019    0.000000       0.002041
siesta:  249    0.434264    0.640735    0.000000       0.002041
siesta:  250    0.530767    0.696451    0.000000       0.002041
siesta:  251    0.627270    0.752167    0.000000       0.002041
siesta:  252   -0.627270    0.027858    0.000000       0.002041
siesta:  253   -0.530767    0.195006    0.000000       0.002041
siesta:  254   -0.434264    0.250722    0.000000       0.002041
siesta:  255   -0.337761    0.306438    0.000000       0.002041
siesta:  256   -0.241258    0.362155    0.000000       0.002041
siesta:  257   -0.144755    0.417871    0.000000       0.002041
siesta:  258   -0.048252    0.473587    0.000000       0.002041
siesta:  259    0.048252    0.529303    0.000000       0.002041
siesta:  260    0.144755    0.585019    0.000000       0.002041
siesta:  261    0.241258    0.640735    0.000000       0.002041
siesta:  262    0.337761    0.696451    0.000000       0.002041
siesta:  263    0.434264    0.752167    0.000000       0.002041
siesta:  264    0.530767    0.807883    0.000000       0.002041
siesta:  265    0.627270    0.863599    0.000000       0.002041
siesta:  266   -0.627270    0.139290    0.000000       0.002041
siesta:  267   -0.530767    0.306438    0.000000       0.002041
siesta:  268   -0.434264    0.362155    0.000000       0.002041
siesta:  269   -0.337761    0.417871    0.000000       0.002041
siesta:  270   -0.241258    0.473587    0.000000       0.002041
siesta:  271   -0.144755    0.529303    0.000000       0.002041
siesta:  272   -0.048252    0.585019    0.000000       0.002041
siesta:  273    0.048252    0.640735    0.000000       0.002041
siesta:  274    0.144755    0.696451    0.000000       0.002041
siesta:  275    0.241258    0.752167    0.000000       0.002041
siesta:  276    0.337761    0.807883    0.000000       0.002041
siesta:  277    0.434264    0.863599    0.000000       0.002041
siesta:  278    0.530767    0.919315    0.000000       0.002041
siesta:  279    0.627270    0.975031    0.000000       0.002041
siesta:  280   -0.627270    0.250722    0.000000       0.002041
siesta:  281   -0.530767    0.417871    0.000000       0.002041
siesta:  282   -0.434264    0.473587    0.000000       0.002041
siesta:  283   -0.337761    0.529303    0.000000       0.002041
siesta:  284   -0.241258    0.585019    0.000000       0.002041
siesta:  285   -0.144755    0.640735    0.000000       0.002041
siesta:  286   -0.048252    0.696451    0.000000       0.002041
siesta:  287    0.048252    0.752167    0.000000       0.002041
siesta:  288    0.144755    0.807883    0.000000       0.002041
siesta:  289    0.241258    0.863599    0.000000       0.002041
siesta:  290    0.337761    0.919315    0.000000       0.002041
siesta:  291    0.434264    0.975031    0.000000       0.002041
siesta:  292    0.530767    1.030747    0.000000       0.002041
siesta:  293    0.627270    1.086464    0.000000       0.002041
siesta:  294   -0.627270    0.362155    0.000000       0.002041
siesta:  295   -0.530767   -0.250722    0.099133       0.002041
siesta:  296   -0.434264   -0.195006    0.099133       0.002041
siesta:  297   -0.337761   -0.139290    0.099133       0.002041
siesta:  298   -0.241258   -0.083574    0.099133       0.002041
siesta:  299   -0.144755   -0.027858    0.099133       0.002041
siesta:  300   -0.048252    0.027858    0.099133       0.002041
siesta:  301    0.048252    0.083574    0.099133       0.002041
siesta:  302    0.144755    0.139290    0.099133       0.002041
siesta:  303    0.241258    0.195006    0.099133       0.002041
siesta:  304    0.337761    0.250722    0.099133       0.002041
siesta:  305    0.434264    0.306438    0.099133       0.002041
siesta:  306    0.530767    0.362155    0.099133       0.002041
siesta:  307    0.627270    0.417871    0.099133       0.002041
siesta:  308   -0.627270   -0.306438    0.099133       0.002041
siesta:  309   -0.530767   -0.139290    0.099133       0.002041
siesta:  310   -0.434264   -0.083574    0.099133       0.002041
siesta:  311   -0.337761   -0.027858    0.099133       0.002041
siesta:  312   -0.241258    0.027858    0.099133       0.002041
siesta:  313   -0.144755    0.083574    0.099133       0.002041
siesta:  314   -0.048252    0.139290    0.099133       0.002041
siesta:  315    0.048252    0.195006    0.099133       0.002041
siesta:  316    0.144755    0.250722    0.099133       0.002041
siesta:  317    0.241258    0.306438    0.099133       0.002041
siesta:  318    0.337761    0.362155    0.099133       0.002041
siesta:  319    0.434264    0.417871    0.099133       0.002041
siesta:  320    0.530767    0.473587    0.099133       0.002041
siesta:  321    0.627270    0.529303    0.099133       0.002041
siesta:  322   -0.627270   -0.195006    0.099133       0.002041
siesta:  323   -0.530767   -0.027858    0.099133       0.002041
siesta:  324   -0.434264    0.027858    0.099133       0.002041
siesta:  325   -0.337761    0.083574    0.099133       0.002041
siesta:  326   -0.241258    0.139290    0.099133       0.002041
siesta:  327   -0.144755    0.195006    0.099133       0.002041
siesta:  328   -0.048252    0.250722    0.099133       0.002041
siesta:  329    0.048252    0.306438    0.099133       0.002041
siesta:  330    0.144755    0.362155    0.099133       0.002041
siesta:  331    0.241258    0.417871    0.099133       0.002041
siesta:  332    0.337761    0.473587    0.099133       0.002041
siesta:  333    0.434264    0.529303    0.099133       0.002041
siesta:  334    0.530767    0.585019    0.099133       0.002041
siesta:  335    0.627270    0.640735    0.099133       0.002041
siesta:  336   -0.627270   -0.083574    0.099133       0.002041
siesta:  337   -0.530767    0.083574    0.099133       0.002041
siesta:  338   -0.434264    0.139290    0.099133       0.002041
siesta:  339   -0.337761    0.195006    0.099133       0.002041
siesta:  340   -0.241258    0.250722    0.099133       0.002041
siesta:  341   -0.144755    0.306438    0.099133       0.002041
siesta:  342   -0.048252    0.362155    0.099133       0.002041
siesta:  343    0.048252    0.417871    0.099133       0.002041
siesta:  344    0.144755    0.473587    0.099133       0.002041
siesta:  345    0.241258    0.529303    0.099133       0.002041
siesta:  346    0.337761    0.585019    0.099133       0.002041
siesta:  347    0.434264    0.640735    0.099133       0.002041
siesta:  348    0.530767    0.696451    0.099133       0.002041
siesta:  349    0.627270    0.752167    0.099133       0.002041
siesta:  350   -0.627270    0.027858    0.099133       0.002041
siesta:  351   -0.530767    0.195006    0.099133       0.002041
siesta:  352   -0.434264    0.250722    0.099133       0.002041
siesta:  353   -0.337761    0.306438    0.099133       0.002041
siesta:  354   -0.241258    0.362155    0.099133       0.002041
siesta:  355   -0.144755    0.417871    0.099133       0.002041
siesta:  356   -0.048252    0.473587    0.099133       0.002041
siesta:  357    0.048252    0.529303    0.099133       0.002041
siesta:  358    0.144755    0.585019    0.099133       0.002041
siesta:  359    0.241258    0.640735    0.099133       0.002041
siesta:  360    0.337761    0.696451    0.099133       0.002041
siesta:  361    0.434264    0.752167    0.099133       0.002041
siesta:  362    0.530767    0.807883    0.099133       0.002041
siesta:  363    0.627270    0.863599    0.099133       0.002041
siesta:  364   -0.627270    0.139290    0.099133       0.002041
siesta:  365   -0.530767    0.306438    0.099133       0.002041
siesta:  366   -0.434264    0.362155    0.099133       0.002041
siesta:  367   -0.337761    0.417871    0.099133       0.002041
siesta:  368   -0.241258    0.473587    0.099133       0.002041
siesta:  369   -0.144755    0.529303    0.099133       0.002041
siesta:  370   -0.048252    0.585019    0.099133       0.002041
siesta:  371    0.048252    0.640735    0.099133       0.002041
siesta:  372    0.144755    0.696451    0.099133       0.002041
siesta:  373    0.241258    0.752167    0.099133       0.002041
siesta:  374    0.337761    0.807883    0.099133       0.002041
siesta:  375    0.434264    0.863599    0.099133       0.002041
siesta:  376    0.530767    0.919315    0.099133       0.002041
siesta:  377    0.627270    0.975031    0.099133       0.002041
siesta:  378   -0.627270    0.250722    0.099133       0.002041
siesta:  379   -0.530767    0.417871    0.099133       0.002041
siesta:  380   -0.434264    0.473587    0.099133       0.002041
siesta:  381   -0.337761    0.529303    0.099133       0.002041
siesta:  382   -0.241258    0.585019    0.099133       0.002041
siesta:  383   -0.144755    0.640735    0.099133       0.002041
siesta:  384   -0.048252    0.696451    0.099133       0.002041
siesta:  385    0.048252    0.752167    0.099133       0.002041
siesta:  386    0.144755    0.807883    0.099133       0.002041
siesta:  387    0.241258    0.863599    0.099133       0.002041
siesta:  388    0.337761    0.919315    0.099133       0.002041
siesta:  389    0.434264    0.975031    0.099133       0.002041
siesta:  390    0.530767    1.030747    0.099133       0.002041
siesta:  391    0.627270    1.086464    0.099133       0.002041
siesta:  392   -0.627270    0.362155    0.099133       0.002041
siesta:  393   -0.530767   -0.250722    0.198266       0.002041
siesta:  394   -0.434264   -0.195006    0.198266       0.002041
siesta:  395   -0.337761   -0.139290    0.198266       0.002041
siesta:  396   -0.241258   -0.083574    0.198266       0.002041
siesta:  397   -0.144755   -0.027858    0.198266       0.002041
siesta:  398   -0.048252    0.027858    0.198266       0.002041
siesta:  399    0.048252    0.083574    0.198266       0.002041
siesta:  400    0.144755    0.139290    0.198266       0.002041
siesta:  401    0.241258    0.195006    0.198266       0.002041
siesta:  402    0.337761    0.250722    0.198266       0.002041
siesta:  403    0.434264    0.306438    0.198266       0.002041
siesta:  404    0.530767    0.362155    0.198266       0.002041
siesta:  405    0.627270    0.417871    0.198266       0.002041
siesta:  406   -0.627270   -0.306438    0.198266       0.002041
siesta:  407   -0.530767   -0.139290    0.198266       0.002041
siesta:  408   -0.434264   -0.083574    0.198266       0.002041
siesta:  409   -0.337761   -0.027858    0.198266       0.002041
siesta:  410   -0.241258    0.027858    0.198266       0.002041
siesta:  411   -0.144755    0.083574    0.198266       0.002041
siesta:  412   -0.048252    0.139290    0.198266       0.002041
siesta:  413    0.048252    0.195006    0.198266       0.002041
siesta:  414    0.144755    0.250722    0.198266       0.002041
siesta:  415    0.241258    0.306438    0.198266       0.002041
siesta:  416    0.337761    0.362155    0.198266       0.002041
siesta:  417    0.434264    0.417871    0.198266       0.002041
siesta:  418    0.530767    0.473587    0.198266       0.002041
siesta:  419    0.627270    0.529303    0.198266       0.002041
siesta:  420   -0.627270   -0.195006    0.198266       0.002041
siesta:  421   -0.530767   -0.027858    0.198266       0.002041
siesta:  422   -0.434264    0.027858    0.198266       0.002041
siesta:  423   -0.337761    0.083574    0.198266       0.002041
siesta:  424   -0.241258    0.139290    0.198266       0.002041
siesta:  425   -0.144755    0.195006    0.198266       0.002041
siesta:  426   -0.048252    0.250722    0.198266       0.002041
siesta:  427    0.048252    0.306438    0.198266       0.002041
siesta:  428    0.144755    0.362155    0.198266       0.002041
siesta:  429    0.241258    0.417871    0.198266       0.002041
siesta:  430    0.337761    0.473587    0.198266       0.002041
siesta:  431    0.434264    0.529303    0.198266       0.002041
siesta:  432    0.530767    0.585019    0.198266       0.002041
siesta:  433    0.627270    0.640735    0.198266       0.002041
siesta:  434   -0.627270   -0.083574    0.198266       0.002041
siesta:  435   -0.530767    0.083574    0.198266       0.002041
siesta:  436   -0.434264    0.139290    0.198266       0.002041
siesta:  437   -0.337761    0.195006    0.198266       0.002041
siesta:  438   -0.241258    0.250722    0.198266       0.002041
siesta:  439   -0.144755    0.306438    0.198266       0.002041
siesta:  440   -0.048252    0.362155    0.198266       0.002041
siesta:  441    0.048252    0.417871    0.198266       0.002041
siesta:  442    0.144755    0.473587    0.198266       0.002041
siesta:  443    0.241258    0.529303    0.198266       0.002041
siesta:  444    0.337761    0.585019    0.198266       0.002041
siesta:  445    0.434264    0.640735    0.198266       0.002041
siesta:  446    0.530767    0.696451    0.198266       0.002041
siesta:  447    0.627270    0.752167    0.198266       0.002041
siesta:  448   -0.627270    0.027858    0.198266       0.002041
siesta:  449   -0.530767    0.195006    0.198266       0.002041
siesta:  450   -0.434264    0.250722    0.198266       0.002041
siesta:  451   -0.337761    0.306438    0.198266       0.002041
siesta:  452   -0.241258    0.362155    0.198266       0.002041
siesta:  453   -0.144755    0.417871    0.198266       0.002041
siesta:  454   -0.048252    0.473587    0.198266       0.002041
siesta:  455    0.048252    0.529303    0.198266       0.002041
siesta:  456    0.144755    0.585019    0.198266       0.002041
siesta:  457    0.241258    0.640735    0.198266       0.002041
siesta:  458    0.337761    0.696451    0.198266       0.002041
siesta:  459    0.434264    0.752167    0.198266       0.002041
siesta:  460    0.530767    0.807883    0.198266       0.002041
siesta:  461    0.627270    0.863599    0.198266       0.002041
siesta:  462   -0.627270    0.139290    0.198266       0.002041
siesta:  463   -0.530767    0.306438    0.198266       0.002041
siesta:  464   -0.434264    0.362155    0.198266       0.002041
siesta:  465   -0.337761    0.417871    0.198266       0.002041
siesta:  466   -0.241258    0.473587    0.198266       0.002041
siesta:  467   -0.144755    0.529303    0.198266       0.002041
siesta:  468   -0.048252    0.585019    0.198266       0.002041
siesta:  469    0.048252    0.640735    0.198266       0.002041
siesta:  470    0.144755    0.696451    0.198266       0.002041
siesta:  471    0.241258    0.752167    0.198266       0.002041
siesta:  472    0.337761    0.807883    0.198266       0.002041
siesta:  473    0.434264    0.863599    0.198266       0.002041
siesta:  474    0.530767    0.919315    0.198266       0.002041
siesta:  475    0.627270    0.975031    0.198266       0.002041
siesta:  476   -0.627270    0.250722    0.198266       0.002041
siesta:  477   -0.530767    0.417871    0.198266       0.002041
siesta:  478   -0.434264    0.473587    0.198266       0.002041
siesta:  479   -0.337761    0.529303    0.198266       0.002041
siesta:  480   -0.241258    0.585019    0.198266       0.002041
siesta:  481   -0.144755    0.640735    0.198266       0.002041
siesta:  482   -0.048252    0.696451    0.198266       0.002041
siesta:  483    0.048252    0.752167    0.198266       0.002041
siesta:  484    0.144755    0.807883    0.198266       0.002041
siesta:  485    0.241258    0.863599    0.198266       0.002041
siesta:  486    0.337761    0.919315    0.198266       0.002041
siesta:  487    0.434264    0.975031    0.198266       0.002041
siesta:  488    0.530767    1.030747    0.198266       0.002041
siesta:  489    0.627270    1.086464    0.198266       0.002041
siesta:  490   -0.627270    0.362155    0.198266       0.002041

siesta: k-grid: Number of k-points =   490
siesta: k-grid: Cutoff (effective) =    16.770 Ang
siesta: k-grid: Supercell and displacements
siesta: k-grid:    0  14   0      0.500
siesta: k-grid:   14   0   0      0.500
siesta: k-grid:    0   0   5      0.000

diag: Algorithm                                     = D&C
diag: Parallel over k                               =   F
diag: Use parallel 2D distribution                  =   T
diag: Parallel block-size                           = 11
diag: Parallel distribution                         =     2 x     4
diag: Used triangular part                          = Lower
diag: Absolute tolerance                            =  0.100E-15
diag: Orthogonalization factor                      =  0.100E-05
diag: Memory factor                                 =  1.0000

superc: Internal auxiliary supercell:     9 x     9 x     3  =     243
superc: Number of atoms, orbitals, and projectors:    972  21384   8748


ts: **************************************************************
ts: Save H and S matrices                           =    F
ts: Save DM and EDM matrices                        =    F
ts: Only save the overlap matrix S                  =    F
ts: **************************************************************

************************ Begin: TS CHECKS AND WARNINGS ************************
************************ End: TS CHECKS AND WARNINGS **************************


                     ====================================
                        Begin CG opt. move =      0
                     ====================================

outcoor: Atomic coordinates (fractional):                   
    0.00000000    0.00000000    0.00000000   1       1  C.pbe
    0.00000000    0.00000000    0.50000000   1       2  C.pbe
    0.33333333    0.66666667    0.00000000   1       3  C.pbe
    0.66666667    0.33333333    0.50000000   1       4  C.pbe

superc: Internal auxiliary supercell:     9 x     9 x     3  =     243
superc: Number of atoms, orbitals, and projectors:    972  21384   8748

outcell: Unit cell vectors (Ang):
        2.461000    0.000000    0.000000
       -1.230500    2.131289    0.000000
        0.000000    0.000000    6.708000

outcell: Cell vector modules (Ang)   :    2.461000    2.461000    6.708000
outcell: Cell angles (23,13,12) (deg):     90.0000     90.0000    120.0000
outcell: Cell volume (Ang**3)        :     35.1841
<dSpData1D:S at geom step 0
  <sparsity:sparsity for geom step 0
    nrows_g=88 nrows=11 sparsity=3.4712 nnzs=26881, refcount: 7>
  <dData1D:(new from dSpData1D) n=26881, refcount: 1>
refcount: 1>
new_DM -- step:     1
Initializing Density Matrix...

Attempting to read DM from file... Failed...
DM filled with atomic data:
<dSpData2D:DM initialized from atoms
  <sparsity:sparsity for geom step 0
    nrows_g=88 nrows=11 sparsity=3.4712 nnzs=26881, refcount: 8>
  <dData2D:DM n=26881 m=1, refcount: 1>
refcount: 1>
No. of atoms with KB's overlaping orbs in proc 0. Max # of overlaps:      51     583
New grid distribution:   1
           1       1:   12    1:    6    1:    9
           2       1:   12    1:    6   10:   18
           3       1:   12    1:    6   19:   27
           4       1:   12    1:    6   28:   36
           5       1:   12    7:   12    1:    9
           6       1:   12    7:   12   10:   18
           7       1:   12    7:   12   19:   27
           8       1:   12    7:   12   28:   36

InitMesh: MESH =    24 x    24 x    72 =       41472
InitMesh: (bp) =    12 x    12 x    36 =        5184
InitMesh: Mesh cutoff (required, used) =   300.000   318.405 Ry
ExtMesh (bp) on 0 =    92 x    86 x    85 =      672520
New grid distribution:   2
           1       1:   12    1:    6    1:    9
           2       1:   12    1:    6   10:   18
           3       1:   12    1:    6   19:   27
           4       1:   12    1:    6   28:   36
           5       1:   12    7:   12    1:    9
           6       1:   12    7:   12   10:   18
           7       1:   12    7:   12   19:   27
           8       1:   12    7:   12   28:   36
New grid distribution:   3
           1       1:   12    1:    6    1:    9
           2       1:   12    1:    6   10:   18
           3       1:   12    1:    6   19:   27
           4       1:   12    1:    6   28:   36
           5       1:   12    7:   12    1:    9
           6       1:   12    7:   12   10:   18
           7       1:   12    7:   12   19:   27
           8       1:   12    7:   12   28:   36
Setting up quadratic distribution...
ExtMesh (bp) on 0 =    92 x    86 x    85 =      672520
PhiOnMesh: Number of (b)points on node 0 =                  648
PhiOnMesh: nlist on node 0 =               149917

stepf: Fermi-Dirac step function

siesta: Program's energy decomposition (eV):
siesta: Ebs     =      -224.313846
siesta: Eions   =      1035.253114
siesta: Ena     =       233.316080
siesta: Ekin    =       462.219493
siesta: Enl     =       -50.982227
siesta: Eso     =         0.000000
siesta: Edftu   =         0.000000
siesta: DEna    =       -34.728064
siesta: DUscf   =         3.454202
siesta: DUext   =         0.000000
siesta: Exc     =      -208.142008
siesta: eta*DQ  =         0.000000
siesta: Emadel  =         0.000000
siesta: Emeta   =         0.000000
siesta: Emolmec =        -0.425283
siesta: Ekinion =         0.000000
siesta: Eharris =      -621.928055
siesta: Etot    =      -630.540921
siesta: FreeEng =      -630.540921

        iscf     Eharris(eV)        E_KS(eV)     FreeEng(eV)     dDmax    Ef(eV) dHmax(eV)
   scf:    1     -621.928055     -630.540921     -630.540921  1.524667 -6.842596  3.438837
timer: Routine,Calls,Time,% = IterSCF        1      11.162  82.42
   scf:    2     -631.278938     -630.924575     -630.924575  0.071422 -6.373968  1.964185
   scf:    3     -631.264600     -631.124549     -631.124549  0.112808 -5.674073  0.037927
   scf:    4     -631.124327     -631.124460     -631.124460  0.009096 -5.721988  0.042117
   scf:    5     -631.124749     -631.124628     -631.124628  0.001323 -5.707923  0.000571
   scf:    6     -631.124628     -631.124628     -631.124628  0.000156 -5.708525  0.001313
   scf:    7     -631.124628     -631.124628     -631.124628  0.000053 -5.708143  0.000450

SCF Convergence by DM+H criterion
max |DM_out - DM_in|         :     0.0000531517
max |H_out - H_in|      (eV) :     0.0004501224
SCF cycle converged after 7 iterations

Using DM_out to compute the final energy and forces
No. of atoms with KB's overlaping orbs in proc 0. Max # of overlaps:      51     583

grdsam: Reading %block Grid.CellSampling
grdsam: Grid-cell sampling: 0 / 1
grdsam: Grid-cell sampling: 1 / 1
New grid distribution:   1
           1       1:   12    1:    6    1:    9
           2       1:   12    1:    6   10:   18
           3       1:   12    1:    6   19:   27
           4       1:   12    1:    6   28:   36
           5       1:   12    7:   12    1:    9
           6       1:   12    7:   12   10:   18
           7       1:   12    7:   12   19:   27
           8       1:   12    7:   12   28:   36

InitMesh: MESH =    24 x    24 x    72 =       41472
InitMesh: (bp) =    12 x    12 x    36 =        5184
InitMesh: Mesh cutoff (required, used) =   300.000   318.405 Ry
ExtMesh (bp) on 0 =    92 x    86 x    85 =      672520
New grid distribution:   2
           1       1:   12    1:    6    1:    9
           2       1:   12    1:    6   10:   18
           3       1:   12    1:    6   19:   27
           4       1:   12    1:    6   28:   36
           5       1:   12    7:   12    1:    9
           6       1:   12    7:   12   10:   18
           7       1:   12    7:   12   19:   27
           8       1:   12    7:   12   28:   36
New grid distribution:   3
           1       1:   12    1:    6    1:    9
           2       1:   12    1:    6   10:   18
           3       1:   12    1:    6   19:   27
           4       1:   12    1:    6   28:   36
           5       1:   12    7:   12    1:    9
           6       1:   12    7:   12   10:   18
           7       1:   12    7:   12   19:   27
           8       1:   12    7:   12   28:   36
Setting up quadratic distribution...
ExtMesh (bp) on 0 =    92 x    86 x    85 =      672520
PhiOnMesh: Number of (b)points on node 0 =                  648
PhiOnMesh: nlist on node 0 =               149052

grdsam: Max (sampled force - avg. force):   0.002187   0.001263  -0.000000 eV/Ang
grdsam: Standard deviation of sampled force:   0.002159   0.001246   0.000000 eV/Ang
grdsam: Max (sampled stress - avg. stress):   2.638866 kbar

New grid distribution:   1
           1       1:   12    1:    6    1:    9
           2       1:   12    1:    6   10:   18
           3       1:   12    1:    6   19:   27
           4       1:   12    1:    6   28:   36
           5       1:   12    7:   12    1:    9
           6       1:   12    7:   12   10:   18
           7       1:   12    7:   12   19:   27
           8       1:   12    7:   12   28:   36

InitMesh: MESH =    24 x    24 x    72 =       41472
InitMesh: (bp) =    12 x    12 x    36 =        5184
InitMesh: Mesh cutoff (required, used) =   300.000   318.405 Ry
ExtMesh (bp) on 0 =    92 x    86 x    85 =      672520
New grid distribution:   2
           1       1:   12    1:    6    1:    9
           2       1:   12    1:    6   10:   18
           3       1:   12    1:    6   19:   27
           4       1:   12    1:    6   28:   36
           5       1:   12    7:   12    1:    9
           6       1:   12    7:   12   10:   18
           7       1:   12    7:   12   19:   27
           8       1:   12    7:   12   28:   36
New grid distribution:   3
           1       1:   12    1:    6    1:    9
           2       1:   12    1:    6   10:   18
           3       1:   12    1:    6   19:   27
           4       1:   12    1:    6   28:   36
           5       1:   12    7:   12    1:    9
           6       1:   12    7:   12   10:   18
           7       1:   12    7:   12   19:   27
           8       1:   12    7:   12   28:   36
Setting up quadratic distribution...
ExtMesh (bp) on 0 =    92 x    86 x    85 =      672520
PhiOnMesh: Number of (b)points on node 0 =                  648
PhiOnMesh: nlist on node 0 =               149917

MM-Stress (kbar):       21.25       21.25       18.07        0.00        0.00       -0.00

siesta: E_KS(eV) =             -631.1252

siesta: E_KS - E_eggbox =      -631.1252

siesta: Atomic forces (eV/Ang):
     1    0.031030   -0.017915   -0.000000
     2   -0.031030    0.017915   -0.000000
     3   -0.034114    0.019695    0.000000
     4    0.034114   -0.019695    0.000000
----------------------------------------
   Tot   -0.000000   -0.000000    0.000000
----------------------------------------
   Max    0.034114
   Res    0.021739    sqrt( Sum f_i^2 / 3N )
----------------------------------------
   Max    0.034114    constrained

Stress tensor Voigt[x,y,z,yz,xz,xy] (kbar):      -18.79      -21.62       -9.32        0.00        0.00       -2.45
(Free)E + p*V (eV/cell)     -630.7612
Target enthalpy (eV/cell)     -631.1252

siesta: Stress tensor (static) (eV/Ang**3):
        -0.011726   -0.001531    0.000000
        -0.001531   -0.013494    0.000000
         0.000000    0.000000   -0.005816

siesta: Pressure (static):         16.57526157  kBar

siesta: Stress tensor (total) (eV/Ang**3):
        -0.011726   -0.001531    0.000000
        -0.001531   -0.013494    0.000000
         0.000000    0.000000   -0.005816

siesta: Pressure (total):         16.57526157  kBar

mulliken: Atomic and Orbital Populations:

Species: C.pbe               
Atom  Qatom  Qorb
               2s      2s      2s      2py     2pz     2px     2py     2pz     
               2px     2py     2pz     2px     3Pdxy   3Pdyz   3Pdz2   3Pdxz   
               3Pdx2-y23Pdxy   3Pdyz   3Pdz2   3Pdxz   3Pdx2-y2
   1  3.999   0.994   0.160   0.021   0.742   0.706   0.742   0.263   0.066
              0.263  -0.089   0.145  -0.089   0.029   0.038  -0.051   0.039

              0.029  -0.014   0.002   0.014   0.002  -0.014
   2  3.999   0.994   0.160   0.021   0.742   0.706   0.742   0.263   0.066
              0.263  -0.089   0.145  -0.089   0.029   0.038  -0.051   0.039

              0.029  -0.014   0.002   0.014   0.002  -0.014
   3  4.001   1.002   0.152   0.026   0.740   0.704   0.740   0.260   0.065
              0.260  -0.085   0.152  -0.085   0.032   0.043  -0.069   0.043

              0.032  -0.015   0.001   0.018   0.001  -0.015
   4  4.001   1.002   0.152   0.026   0.740   0.704   0.740   0.260   0.065
              0.260  -0.085   0.152  -0.085   0.032   0.043  -0.069   0.043

              0.032  -0.015   0.001   0.018   0.001  -0.015

mulliken: Qtot =       16.000

cgvc: No target stress found, assuming hydrostatic MD.TargetPressure.

cgvc: Target stress (kBar)
cgvc:        -0.000       0.000       0.000
cgvc:         0.000      -0.000       0.000
cgvc:         0.000       0.000      -0.000

cgvc: WARNING: CG file not found

                     ====================================
                        Begin CG opt. move =      1
                     ====================================

outcoor: Atomic coordinates (fractional):                   
    0.00825645   -0.00825637   -0.00000000   1       1  C.pbe
   -0.00825645    0.00825637    0.50000000   1       2  C.pbe
    0.32425635    0.67574358    0.00000000   1       3  C.pbe
    0.67574365    0.32425642    0.50000000   1       4  C.pbe
 Kpoints in:          455 . Kpoints trimmed:          423

siesta: k-point coordinates (Bohr**-1) and weights:
siesta:    1   -0.616397   -0.354731   -0.197209       0.002367
siesta:    2   -0.513664   -0.295609   -0.197209       0.002367
siesta:    3   -0.410931   -0.236487   -0.197209       0.002367
siesta:    4   -0.308198   -0.177365   -0.197209       0.002367
siesta:    5   -0.205466   -0.118244   -0.197209       0.002367
siesta:    6   -0.102733   -0.059122   -0.197209       0.002367
siesta:    7   -0.000000   -0.000000   -0.197209       0.002367
siesta:    8    0.102733    0.059122   -0.197209       0.002367
siesta:    9    0.205466    0.118244   -0.197209       0.002367
siesta:   10    0.308198    0.177365   -0.197209       0.002367
siesta:   11    0.410931    0.236487   -0.197209       0.002367
siesta:   12    0.513664    0.295609   -0.197209       0.002367
siesta:   13    0.616397    0.354731   -0.197209       0.002367
siesta:   14   -0.616562   -0.236201   -0.197209       0.002367
siesta:   15   -0.513829   -0.177079   -0.197209       0.002367
siesta:   16   -0.411097   -0.117957   -0.197209       0.002367
siesta:   17   -0.308364   -0.058835   -0.197209       0.002367
siesta:   18   -0.205631    0.000287   -0.197209       0.002367
siesta:   19   -0.102898    0.059408   -0.197209       0.002367
siesta:   20   -0.000165    0.118530   -0.197209       0.002367
siesta:   21    0.102567    0.177652   -0.197209       0.002367
siesta:   22    0.205300    0.236774   -0.197209       0.002367
siesta:   23    0.308033    0.295896   -0.197209       0.002367
siesta:   24    0.410766    0.355017   -0.197209       0.002367
siesta:   25    0.513499    0.414139   -0.197209       0.002367
siesta:   26    0.616231    0.473261   -0.197209       0.002367
siesta:   27   -0.616728   -0.117671   -0.197209       0.002367
siesta:   28   -0.513995   -0.058549   -0.197209       0.002367
siesta:   29   -0.411262    0.000573   -0.197209       0.002367
siesta:   30   -0.308529    0.059695   -0.197209       0.002367
siesta:   31   -0.205796    0.118817   -0.197209       0.002367
siesta:   32   -0.103064    0.177938   -0.197209       0.002367
siesta:   33   -0.000331    0.237060   -0.197209       0.002367
siesta:   34    0.102402    0.296182   -0.197209       0.002367
siesta:   35    0.205135    0.355304   -0.197209       0.002367
siesta:   36    0.307868    0.414426   -0.197209       0.002367
siesta:   37    0.410600    0.473547   -0.197209       0.002367
siesta:   38    0.513333    0.532669   -0.197209       0.002367
siesta:   39    0.616066    0.591791   -0.197209       0.002367
siesta:   40   -0.616893    0.000860   -0.197209       0.002367
siesta:   41   -0.514160    0.059981   -0.197209       0.002367
siesta:   42   -0.411427    0.119103   -0.197209       0.002367
siesta:   43   -0.308695    0.178225   -0.197209       0.002367
siesta:   44   -0.205962    0.237347   -0.197209       0.002367
siesta:   45   -0.103229    0.296469   -0.197209       0.002367
siesta:   46   -0.000496    0.355590   -0.197209       0.002367
siesta:   47    0.102237    0.414712   -0.197209       0.002367
siesta:   48    0.204969    0.473834   -0.197209       0.002367
siesta:   49    0.307702    0.532956   -0.197209       0.002367
siesta:   50    0.410435    0.592078   -0.197209       0.002367
siesta:   51    0.513168    0.651199   -0.197209       0.002367
siesta:   52    0.615901    0.710321   -0.197209       0.002367
siesta:   53   -0.617058    0.119390   -0.197209       0.002367
siesta:   54   -0.514326    0.178511   -0.197209       0.002367
siesta:   55   -0.411593    0.237633   -0.197209       0.002367
siesta:   56   -0.308860    0.296755   -0.197209       0.002367
siesta:   57   -0.206127    0.355877   -0.197209       0.002367
siesta:   58   -0.103394    0.414999   -0.197209       0.002367
siesta:   59   -0.000662    0.474120   -0.197209       0.002367
siesta:   60    0.102071    0.533242   -0.197209       0.002367
siesta:   61    0.204804    0.592364   -0.197209       0.002367
siesta:   62    0.307537    0.651486   -0.197209       0.002367
siesta:   63    0.410270    0.710608   -0.197209       0.002367
siesta:   64    0.513002    0.769729   -0.197209       0.002367
siesta:   65    0.615735    0.828851   -0.197209       0.002367
siesta:   66   -0.617224    0.237920   -0.197209       0.002367
siesta:   67   -0.514491    0.297042   -0.197209       0.002367
siesta:   68   -0.411758    0.356163   -0.197209       0.002367
siesta:   69   -0.309025    0.415285   -0.197209       0.002367
siesta:   70   -0.206293    0.474407   -0.197209       0.002367
siesta:   71   -0.103560    0.533529   -0.197209       0.002367
siesta:   72   -0.000827    0.592651   -0.197209       0.002367
siesta:   73    0.101906    0.651772   -0.197209       0.002367
siesta:   74    0.204639    0.710894   -0.197209       0.002367
siesta:   75    0.307371    0.770016   -0.197209       0.002367
siesta:   76    0.410104    0.829138   -0.197209       0.002367
siesta:   77    0.512837    0.888260   -0.197209       0.002367
siesta:   78    0.615570    0.947381   -0.197209       0.002367
siesta:   79   -0.617389    0.356450   -0.197209       0.002367
siesta:   80   -0.514656    0.415572   -0.197209       0.002367
siesta:   81   -0.411924    0.474693   -0.197209       0.002367
siesta:   82   -0.309191    0.533815   -0.197209       0.002367
siesta:   83   -0.206458    0.592937   -0.197209       0.002367
siesta:   84   -0.103725    0.652059   -0.197209       0.002367
siesta:   85   -0.000992    0.711181   -0.197209       0.002367
siesta:   86    0.101740    0.770302   -0.197209       0.002367
siesta:   87    0.204473    0.829424   -0.197209       0.002367
siesta:   88    0.307206    0.888546   -0.197209       0.002367
siesta:   89    0.409939    0.947668   -0.197209       0.002367
siesta:   90    0.512671    1.006790   -0.197209       0.002367
siesta:   91    0.615404    1.065912   -0.197209       0.002367
siesta:   92   -0.616397   -0.354731   -0.098604       0.002367
siesta:   93   -0.513664   -0.295609   -0.098604       0.002367
siesta:   94   -0.410931   -0.236487   -0.098604       0.002367
siesta:   95   -0.308198   -0.177365   -0.098604       0.002367
siesta:   96   -0.205466   -0.118244   -0.098604       0.002367
siesta:   97   -0.102733   -0.059122   -0.098604       0.002367
siesta:   98   -0.000000   -0.000000   -0.098604       0.002367
siesta:   99    0.102733    0.059122   -0.098604       0.002367
siesta:  100    0.205466    0.118244   -0.098604       0.002367
siesta:  101    0.308198    0.177365   -0.098604       0.002367
siesta:  102    0.410931    0.236487   -0.098604       0.002367
siesta:  103    0.513664    0.295609   -0.098604       0.002367
siesta:  104    0.616397    0.354731   -0.098604       0.002367
siesta:  105   -0.616562   -0.236201   -0.098604       0.002367
siesta:  106   -0.513829   -0.177079   -0.098604       0.002367
siesta:  107   -0.411097   -0.117957   -0.098604       0.002367
siesta:  108   -0.308364   -0.058835   -0.098604       0.002367
siesta:  109   -0.205631    0.000287   -0.098604       0.002367
siesta:  110   -0.102898    0.059408   -0.098604       0.002367
siesta:  111   -0.000165    0.118530   -0.098604       0.002367
siesta:  112    0.102567    0.177652   -0.098604       0.002367
siesta:  113    0.205300    0.236774   -0.098604       0.002367
siesta:  114    0.308033    0.295896   -0.098604       0.002367
siesta:  115    0.410766    0.355017   -0.098604       0.002367
siesta:  116    0.513499    0.414139   -0.098604       0.002367
siesta:  117    0.616231    0.473261   -0.098604       0.002367
siesta:  118   -0.616728   -0.117671   -0.098604       0.002367
siesta:  119   -0.513995   -0.058549   -0.098604       0.002367
siesta:  120   -0.411262    0.000573   -0.098604       0.002367
siesta:  121   -0.308529    0.059695   -0.098604       0.002367
siesta:  122   -0.205796    0.118817   -0.098604       0.002367
siesta:  123   -0.103064    0.177938   -0.098604       0.002367
siesta:  124   -0.000331    0.237060   -0.098604       0.002367
siesta:  125    0.102402    0.296182   -0.098604       0.002367
siesta:  126    0.205135    0.355304   -0.098604       0.002367
siesta:  127    0.307868    0.414426   -0.098604       0.002367
siesta:  128    0.410600    0.473547   -0.098604       0.002367
siesta:  129    0.513333    0.532669   -0.098604       0.002367
siesta:  130    0.616066    0.591791   -0.098604       0.002367
siesta:  131   -0.616893    0.000860   -0.098604       0.002367
siesta:  132   -0.514160    0.059981   -0.098604       0.002367
siesta:  133   -0.411427    0.119103   -0.098604       0.002367
siesta:  134   -0.308695    0.178225   -0.098604       0.002367
siesta:  135   -0.205962    0.237347   -0.098604       0.002367
siesta:  136   -0.103229    0.296469   -0.098604       0.002367
siesta:  137   -0.000496    0.355590   -0.098604       0.002367
siesta:  138    0.102237    0.414712   -0.098604       0.002367
siesta:  139    0.204969    0.473834   -0.098604       0.002367
siesta:  140    0.307702    0.532956   -0.098604       0.002367
siesta:  141    0.410435    0.592078   -0.098604       0.002367
siesta:  142    0.513168    0.651199   -0.098604       0.002367
siesta:  143    0.615901    0.710321   -0.098604       0.002367
siesta:  144   -0.617058    0.119390   -0.098604       0.002367
siesta:  145   -0.514326    0.178511   -0.098604       0.002367
siesta:  146   -0.411593    0.237633   -0.098604       0.002367
siesta:  147   -0.308860    0.296755   -0.098604       0.002367
siesta:  148   -0.206127    0.355877   -0.098604       0.002367
siesta:  149   -0.103394    0.414999   -0.098604       0.002367
siesta:  150   -0.000662    0.474120   -0.098604       0.002367
siesta:  151    0.102071    0.533242   -0.098604       0.002367
siesta:  152    0.204804    0.592364   -0.098604       0.002367
siesta:  153    0.307537    0.651486   -0.098604       0.002367
siesta:  154    0.410270    0.710608   -0.098604       0.002367
siesta:  155    0.513002    0.769729   -0.098604       0.002367
siesta:  156    0.615735    0.828851   -0.098604       0.002367
siesta:  157   -0.617224    0.237920   -0.098604       0.002367
siesta:  158   -0.514491    0.297042   -0.098604       0.002367
siesta:  159   -0.411758    0.356163   -0.098604       0.002367
siesta:  160   -0.309025    0.415285   -0.098604       0.002367
siesta:  161   -0.206293    0.474407   -0.098604       0.002367
siesta:  162   -0.103560    0.533529   -0.098604       0.002367
siesta:  163   -0.000827    0.592651   -0.098604       0.002367
siesta:  164    0.101906    0.651772   -0.098604       0.002367
siesta:  165    0.204639    0.710894   -0.098604       0.002367
siesta:  166    0.307371    0.770016   -0.098604       0.002367
siesta:  167    0.410104    0.829138   -0.098604       0.002367
siesta:  168    0.512837    0.888260   -0.098604       0.002367
siesta:  169    0.615570    0.947381   -0.098604       0.002367
siesta:  170   -0.617389    0.356450   -0.098604       0.002367
siesta:  171   -0.514656    0.415572   -0.098604       0.002367
siesta:  172   -0.411924    0.474693   -0.098604       0.002367
siesta:  173   -0.309191    0.533815   -0.098604       0.002367
siesta:  174   -0.206458    0.592937   -0.098604       0.002367
siesta:  175   -0.103725    0.652059   -0.098604       0.002367
siesta:  176   -0.000992    0.711181   -0.098604       0.002367
siesta:  177    0.101740    0.770302   -0.098604       0.002367
siesta:  178    0.204473    0.829424   -0.098604       0.002367
siesta:  179    0.307206    0.888546   -0.098604       0.002367
siesta:  180    0.409939    0.947668   -0.098604       0.002367
siesta:  181    0.512671    1.006790   -0.098604       0.002367
siesta:  182    0.615404    1.065912   -0.098604       0.002367
siesta:  183   -0.616397   -0.354731   -0.000000       0.002367
siesta:  184   -0.513664   -0.295609   -0.000000       0.002367
siesta:  185   -0.410931   -0.236487   -0.000000       0.002367
siesta:  186   -0.308198   -0.177365   -0.000000       0.002367
siesta:  187   -0.205466   -0.118244   -0.000000       0.002367
siesta:  188   -0.102733   -0.059122   -0.000000       0.002367
siesta:  189    0.000000    0.000000    0.000000       0.001183
siesta:  190   -0.616562   -0.236201   -0.000000       0.002367
siesta:  191   -0.513829   -0.177079   -0.000000       0.002367
siesta:  192   -0.411097   -0.117957   -0.000000       0.002367
siesta:  193   -0.308364   -0.058835   -0.000000       0.002367
siesta:  194   -0.205631    0.000287   -0.000000       0.002367
siesta:  195   -0.102898    0.059408   -0.000000       0.002367
siesta:  196   -0.000165    0.118530    0.000000       0.002367
siesta:  197    0.102567    0.177652    0.000000       0.002367
siesta:  198    0.205300    0.236774    0.000000       0.002367
siesta:  199    0.308033    0.295896    0.000000       0.002367
siesta:  200    0.410766    0.355017    0.000000       0.002367
siesta:  201    0.513499    0.414139    0.000000       0.002367
siesta:  202    0.616231    0.473261    0.000000       0.002367
siesta:  203   -0.616728   -0.117671   -0.000000       0.002367
siesta:  204   -0.513995   -0.058549   -0.000000       0.002367
siesta:  205   -0.411262    0.000573   -0.000000       0.002367
siesta:  206   -0.308529    0.059695   -0.000000       0.002367
siesta:  207   -0.205796    0.118817   -0.000000       0.002367
siesta:  208   -0.103064    0.177938    0.000000       0.002367
siesta:  209   -0.000331    0.237060    0.000000       0.002367
siesta:  210    0.102402    0.296182    0.000000       0.002367
siesta:  211    0.205135    0.355304    0.000000       0.002367
siesta:  212    0.307868    0.414426    0.000000       0.002367
siesta:  213    0.410600    0.473547    0.000000       0.002367
siesta:  214    0.513333    0.532669    0.000000       0.002367
siesta:  215    0.616066    0.591791    0.000000       0.002367
siesta:  216   -0.616893    0.000860   -0.000000       0.002367
siesta:  217   -0.514160    0.059981   -0.000000       0.002367
siesta:  218   -0.411427    0.119103   -0.000000       0.002367
siesta:  219   -0.308695    0.178225   -0.000000       0.002367
siesta:  220   -0.205962    0.237347    0.000000       0.002367
siesta:  221   -0.103229    0.296469    0.000000       0.002367
siesta:  222   -0.000496    0.355590    0.000000       0.002367
siesta:  223    0.102237    0.414712    0.000000       0.002367
siesta:  224    0.204969    0.473834    0.000000       0.002367
siesta:  225    0.307702    0.532956    0.000000       0.002367
siesta:  226    0.410435    0.592078    0.000000       0.002367
siesta:  227    0.513168    0.651199    0.000000       0.002367
siesta:  228    0.615901    0.710321    0.000000       0.002367
siesta:  229   -0.617058    0.119390   -0.000000       0.002367
siesta:  230   -0.514326    0.178511   -0.000000       0.002367
siesta:  231   -0.411593    0.237633   -0.000000       0.002367
siesta:  232   -0.308860    0.296755   -0.000000       0.002367
siesta:  233   -0.206127    0.355877    0.000000       0.002367
siesta:  234   -0.103394    0.414999    0.000000       0.002367
siesta:  235   -0.000662    0.474120    0.000000       0.002367
siesta:  236    0.102071    0.533242    0.000000       0.002367
siesta:  237    0.204804    0.592364    0.000000       0.002367
siesta:  238    0.307537    0.651486    0.000000       0.002367
siesta:  239    0.410270    0.710608    0.000000       0.002367
siesta:  240    0.513002    0.769729    0.000000       0.002367
siesta:  241    0.615735    0.828851    0.000000       0.002367
siesta:  242   -0.617224    0.237920   -0.000000       0.002367
siesta:  243   -0.514491    0.297042   -0.000000       0.002367
siesta:  244   -0.411758    0.356163   -0.000000       0.002367
siesta:  245   -0.309025    0.415285    0.000000       0.002367
siesta:  246   -0.206293    0.474407    0.000000       0.002367
siesta:  247   -0.103560    0.533529    0.000000       0.002367
siesta:  248   -0.000827    0.592651    0.000000       0.002367
siesta:  249    0.101906    0.651772    0.000000       0.002367
siesta:  250    0.204639    0.710894    0.000000       0.002367
siesta:  251    0.307371    0.770016    0.000000       0.002367
siesta:  252    0.410104    0.829138    0.000000       0.002367
siesta:  253    0.512837    0.888260    0.000000       0.002367
siesta:  254    0.615570    0.947381    0.000000       0.002367
siesta:  255   -0.617389    0.356450   -0.000000       0.002367
siesta:  256   -0.514656    0.415572   -0.000000       0.002367
siesta:  257   -0.411924    0.474693    0.000000       0.002367
siesta:  258   -0.309191    0.533815    0.000000       0.002367
siesta:  259   -0.206458    0.592937    0.000000       0.002367
siesta:  260   -0.103725    0.652059    0.000000       0.002367
siesta:  261   -0.000992    0.711181    0.000000       0.002367
siesta:  262    0.101740    0.770302    0.000000       0.002367
siesta:  263    0.204473    0.829424    0.000000       0.002367
siesta:  264    0.307206    0.888546    0.000000       0.002367
siesta:  265    0.409939    0.947668    0.000000       0.002367
siesta:  266    0.512671    1.006790    0.000000       0.002367
siesta:  267    0.615404    1.065912    0.000000       0.002367
siesta:  268   -0.616562   -0.236201    0.098604       0.002367
siesta:  269   -0.513829   -0.177079    0.098604       0.002367
siesta:  270   -0.411097   -0.117957    0.098604       0.002367
siesta:  271   -0.308364   -0.058835    0.098604       0.002367
siesta:  272   -0.205631    0.000287    0.098604       0.002367
siesta:  273   -0.102898    0.059408    0.098604       0.002367
siesta:  274   -0.000165    0.118530    0.098604       0.002367
siesta:  275    0.102567    0.177652    0.098604       0.002367
siesta:  276    0.205300    0.236774    0.098604       0.002367
siesta:  277    0.308033    0.295896    0.098604       0.002367
siesta:  278    0.410766    0.355017    0.098604       0.002367
siesta:  279    0.513499    0.414139    0.098604       0.002367
siesta:  280    0.616231    0.473261    0.098604       0.002367
siesta:  281   -0.616728   -0.117671    0.098604       0.002367
siesta:  282   -0.513995   -0.058549    0.098604       0.002367
siesta:  283   -0.411262    0.000573    0.098604       0.002367
siesta:  284   -0.308529    0.059695    0.098604       0.002367
siesta:  285   -0.205796    0.118817    0.098604       0.002367
siesta:  286   -0.103064    0.177938    0.098604       0.002367
siesta:  287   -0.000331    0.237060    0.098604       0.002367
siesta:  288    0.102402    0.296182    0.098604       0.002367
siesta:  289    0.205135    0.355304    0.098604       0.002367
siesta:  290    0.307868    0.414426    0.098604       0.002367
siesta:  291    0.410600    0.473547    0.098604       0.002367
siesta:  292    0.513333    0.532669    0.098604       0.002367
siesta:  293    0.616066    0.591791    0.098604       0.002367
siesta:  294   -0.616893    0.000860    0.098604       0.002367
siesta:  295   -0.514160    0.059981    0.098604       0.002367
siesta:  296   -0.411427    0.119103    0.098604       0.002367
siesta:  297   -0.308695    0.178225    0.098604       0.002367
siesta:  298   -0.205962    0.237347    0.098604       0.002367
siesta:  299   -0.103229    0.296469    0.098604       0.002367
siesta:  300   -0.000496    0.355590    0.098604       0.002367
siesta:  301    0.102237    0.414712    0.098604       0.002367
siesta:  302    0.204969    0.473834    0.098604       0.002367
siesta:  303    0.307702    0.532956    0.098604       0.002367
siesta:  304    0.410435    0.592078    0.098604       0.002367
siesta:  305    0.513168    0.651199    0.098604       0.002367
siesta:  306    0.615901    0.710321    0.098604       0.002367
siesta:  307   -0.617058    0.119390    0.098604       0.002367
siesta:  308   -0.514326    0.178511    0.098604       0.002367
siesta:  309   -0.411593    0.237633    0.098604       0.002367
siesta:  310   -0.308860    0.296755    0.098604       0.002367
siesta:  311   -0.206127    0.355877    0.098604       0.002367
siesta:  312   -0.103394    0.414999    0.098604       0.002367
siesta:  313   -0.000662    0.474120    0.098604       0.002367
[...]
 405  1  -22.2464  -22.1915  -15.5511  -15.5230  -11.9939  -11.9795  -10.1257   -9.7190   -1.2649   -1.0533
           2.6468    2.6997    3.6268    4.9115    9.1239    9.4626   11.2314   11.5136   13.1346   13.4088
   16.6171   16.9317   18.3815   19.1410   21.2535   21.6293   24.1975   25.0516   28.5112   29.4853
   30.6652   30.8615   35.8079   37.4140   37.9458   38.4508   40.1054   41.0997   44.4925   45.8386
   48.3853   48.8881   52.6993   54.9155   56.0273   56.6292   59.3976   59.8626   63.3721   64.6141
   66.1966   67.1934   70.9982   72.9816   84.0871   87.5385   88.1544   88.6752   91.0636   92.3036
   94.5184   95.8714   98.0243  100.1992  101.5754  103.4849  105.9871  107.9264  110.5446  113.2535
  116.0967  121.2495  124.2614  124.9443  128.9449  130.2395  132.7904  133.5542  134.0824  137.5126
  151.6839  153.4776  164.8753  166.8233  179.4434  182.1821  200.7086  202.3379
 406  1  -22.5160  -22.4598  -14.5460  -14.5264  -12.6944  -12.6801  -10.4128   -9.9929   -0.5729   -0.4300
           3.1214    4.1621    4.5155    4.6881    7.0550    7.1816   10.5919   11.2173   13.2075   13.4994
   16.8658   17.0774   17.8222   19.3727   20.9537   21.3464   25.0875   25.1464   29.6692   30.0933
   34.5137   35.0755   36.2201   37.5567   38.3982   39.5337   40.6206   42.0116   43.4183   44.0845
   48.2645   49.5933   53.5945   54.2436   55.9712   56.4753   59.8180   60.7803   65.2585   65.5771
   67.8304   68.0946   72.9217   73.9580   80.5023   82.8522   86.3568   88.3957   90.0312   90.6030
   93.9113   95.8360   97.6795   97.7730   99.5336  100.8799  105.4979  107.5023  110.6799  111.7619
  115.2819  116.4883  117.3290  119.8711  124.8608  125.8757  127.9616  128.9207  132.8598  134.9632
  150.5876  151.6921  167.1466  168.7825  174.0220  176.5116  198.5646  199.5048
 407  1  -22.5160  -22.4598  -14.5460  -14.5263  -12.6945  -12.6802  -10.4128   -9.9929   -0.5728   -0.4299
           3.1214    4.1620    4.5156    4.6882    7.0550    7.1815   10.5920   11.2173   13.2075   13.4995
   16.8654   17.0765   17.8232   19.3732   20.9535   21.3463   25.0880   25.1468   29.6673   30.0913
   34.5152   35.0764   36.2237   37.5558   38.4006   39.5327   40.6193   42.0111   43.4194   44.0853
   48.2667   49.5948   53.5946   54.2420   55.9690   56.4735   59.8181   60.7816   65.2613   65.5774
   67.8301   68.0929   72.9235   73.9582   80.5015   82.8522   86.3556   88.3916   90.0323   90.6033
   93.9181   95.8413   97.6792   97.7755   99.5325  100.8835  105.5017  107.4983  110.6826  111.7642
  115.2835  116.4895  117.3248  119.8687  124.8614  125.8748  127.9615  128.9179  132.8651  134.9661
  150.5922  151.6967  167.1483  168.7887  174.0104  176.5079  198.5624  199.5000
 408  1  -22.2465  -22.1915  -15.5511  -15.5230  -11.9940  -11.9796  -10.1257   -9.7190   -1.2648   -1.0532
           2.6468    2.6997    3.6269    4.9115    9.1237    9.4625   11.2317   11.5138   13.1346   13.4090
   16.6165   16.9304   18.3827   19.1405   21.2548   21.6306   24.1982   25.0514   28.5120   29.4817
   30.6614   30.8617   35.8113   37.4141   37.9495   38.4538   40.1050   41.1006   44.4915   45.8373
   48.3865   48.8914   52.6979   54.9166   56.0251   56.6268   59.3961   59.8650   63.3714   64.6158
   66.1967   67.1936   71.0018   72.9828   84.0864   87.5344   88.1539   88.6742   91.0664   92.3049
   94.5226   95.8717   98.0260  100.2081  101.5796  103.4852  105.9966  107.9353  110.5469  113.2616
  116.0865  121.2464  124.2630  124.9426  128.9439  130.2395  132.7967  133.5581  134.0897  137.5203
  151.6834  153.4829  164.8796  166.8237  179.4276  182.1794  200.6993  202.3266
 409  1  -21.7136  -21.6610  -16.5775  -16.5455  -11.7918  -11.7788   -9.5684   -9.1910   -2.2260   -1.9805
           1.9287    2.0009    4.2487    5.5448    9.4988   10.1536   12.3703   12.3764   13.3929   13.7606
   16.9451   17.3033   17.5738   18.5722   20.8483   21.0970   24.7301   25.8308   26.0202   27.9477
   28.9861   31.0217   35.1706   35.2143   35.8566   38.0767   41.4004   43.8701   46.1366   46.8257
   47.0653   50.3233   50.7313   52.5451   58.1619   58.6568   58.8665   59.1509   63.0854   64.5236
   64.6534   66.3790   69.2181   71.9580   84.2385   87.7315   91.0192   92.1636   92.6897   93.3769
   93.6106   94.2145   94.9862   96.9763  102.2954  104.4172  106.9863  110.1935  111.1308  111.5166
  117.8122  121.9287  124.6593  125.5368  130.3494  131.5090  132.7388  135.7298  138.8909  140.5260
  142.0063  144.9163  166.0938  169.7247  184.2254  186.1922  200.1184  202.1424
 410  1  -20.9363  -20.8878  -17.4334  -17.3991  -12.4061  -12.3908   -8.7816   -8.4557   -3.1669   -2.9353
           2.4545    2.5397    5.0876    6.1622    8.6131    9.2158   11.9690   12.3275   13.8273   14.3513
   16.3365   16.7707   18.1605   18.7462   20.3779   20.7932   23.6981   24.5694   27.7271   28.6298
   29.7287   29.8667   34.2765   35.3280   36.8622   38.3643   39.5488   41.4510   46.1583   46.9251
   50.3386   50.4741   52.2742   56.8694   57.5438   57.9748   59.8813   60.9770   63.4738   63.9176
   66.1213   67.2880   68.9262   70.5047   83.5888   87.0729   88.6353   89.8021   92.3516   93.6518
   95.0347   97.2963   97.8901  100.2952  104.3914  105.7501  107.8533  108.5800  111.4732  114.4843
  118.1538  119.3785  122.0818  122.5899  127.2107  128.6641  130.1491  132.5923  134.7000  136.1976
  148.9384  151.2174  166.7984  169.2581  183.0074  184.9774  200.2937  202.2115
 411  1  -19.7862  -19.7624  -18.7610  -18.7417  -12.5459  -12.5303   -7.9622   -7.7882   -4.0838   -3.9187
           2.3819    2.4726    6.4993    6.6614    7.7317    8.3747   12.2564   12.9414   14.2517   14.5410
   16.5879   17.0920   18.2058   18.3890   19.8259   20.3637   23.5783   24.3908   27.4869   28.1494
   29.3713   29.4551   33.6184   34.4798   36.1763   38.1079   39.4580   41.7342   46.9593   48.2694
   50.9328   51.7935   52.0649   56.9360   57.8138   57.9366   58.5602   60.5557   64.1987   64.4668
   66.0491   66.3873   69.6852   69.8275   84.5431   85.8391   88.8161   90.1464   92.7396   94.9686
   95.0689   97.0965   97.6143   98.6905  104.4567  106.3986  107.8632  109.2536  113.1453  114.4410
  116.5270  118.6884  124.3786  124.7444  125.2169  126.1084  130.3714  133.1331  133.9140  136.6850
  145.7122  147.5312  169.6627  170.7554  181.8179  183.6573  203.7143  206.2376
 412  1  -19.9652  -19.9242  -18.0349  -18.0020  -13.6336  -13.6134   -7.8476   -7.6034   -3.9563   -3.7975
           3.9881    4.1054    5.7405    6.1332    7.8815    8.5629   10.5306   11.2995   13.5535   14.0150
   17.1697   17.3619   17.6559   18.0332   18.9616   19.5783   24.1915   24.7212   28.2094   29.3528
   32.8228   33.1609   34.3436   36.3992   38.0502   39.1330   39.9767   41.8175   45.8495   46.3680
   49.6134   49.8830   54.5390   55.4480   56.2212   57.9526   60.2141   60.4595   64.5409   64.7257
   67.4525   67.9464   72.3761   73.0891   83.6546   85.7129   87.3630   88.5656   90.1658   91.8525
   93.3727   94.5047   95.4320   96.9641  102.5476  103.8639  107.2874  107.6249  114.2359  115.3731
  119.6879  120.4675  122.0740  122.6347  126.4049  127.0956  131.0642  131.9905  139.7949  142.0927
  155.7482  157.5777  169.9359  170.1821  179.9176  181.8609  200.0834  201.5062
 413  1  -20.1806  -20.1356  -16.9668  -16.9407  -14.8402  -14.8201   -7.8678   -7.5540   -3.6870   -3.5339
           5.0254    5.2587    6.2544    6.4290    7.6484    8.2578    8.9395    9.9110   13.5213   14.1270
   16.4062   17.0446   17.4133   17.7853   18.5900   18.8460   24.4973   25.6196   29.9733   30.2473
   33.4748   34.7835   37.4110   37.9935   40.0789   40.6907   42.2039   43.0844   46.3820   46.7634
   50.4449   51.3764   53.1053   54.5946   55.5621   57.5879   63.8238   64.6047   66.4607   67.2053
   68.2701   69.8109   75.3749   75.6533   83.4369   85.7886   86.4125   87.6217   89.9686   90.7980
   93.2963   94.2300   96.1173   97.5548  105.0017  105.3050  105.9658  108.8274  113.7173  114.9921
  117.3455  118.0185  120.2549  120.3987  121.3931  124.5775  134.0286  134.5642  143.5739  144.8666
  160.2119  162.5678  168.5788  169.4421  183.4626  184.9908  192.8064  192.9084
 414  1  -20.1806  -20.1356  -16.9668  -16.9407  -14.8401  -14.8201   -7.8677   -7.5540   -3.6871   -3.5340
           5.0254    5.2587    6.2540    6.4288    7.6495    8.2576    8.9395    9.9106   13.5218   14.1274
   16.4058   17.0426   17.4134   17.7854   18.5905   18.8470   24.4974   25.6192   29.9748   30.2466
   33.4752   34.7850   37.4074   37.9899   40.0799   40.6909   42.2041   43.0851   46.3821   46.7637
   50.4427   51.3762   53.1067   54.5967   55.5610   57.5884   63.8227   64.6032   66.4603   67.2058
   68.2715   69.8092   75.3749   75.6538   83.4326   85.7879   86.4146   87.6222   89.9690   90.7983
   93.2957   94.2290   96.1213   97.5543  105.0044  105.2963  105.9655  108.8206  113.7180  114.9982
  117.3442  118.0166  120.2538  120.3984  121.3935  124.5790  134.0087  134.5517  143.5738  144.8674
  160.2128  162.5693  168.5796  169.4429  183.4552  184.9866  192.8203  192.9174
 415  1  -19.9651  -19.9241  -18.0351  -18.0021  -13.6335  -13.6133   -7.8473   -7.6034   -3.9565   -3.7978
           3.9880    4.1053    5.7404    6.1330    7.8825    8.5624   10.5310   11.2985   13.5544   14.0158
   17.1692   17.3610   17.6555   18.0319   18.9622   19.5793   24.1917   24.7199   28.2117   29.3541
   32.8226   33.1593   34.3425   36.3928   38.0501   39.1324   39.9748   41.8161   45.8533   46.3711
   49.6128   49.8828   54.5392   55.4470   56.2209   57.9526   60.2131   60.4585   64.5386   64.7256
   67.4540   67.9468   72.3759   73.0884   83.6510   85.7103   87.3632   88.5644   90.1672   91.8522
   93.3723   94.5000   95.4354   96.9552  102.5447  103.8618  107.2849  107.6188  114.2358  115.3742
  119.6894  120.4704  122.0760  122.6350  126.4057  127.0965  131.0537  131.9773  139.7926  142.0852
  155.7477  157.5776  169.9395  170.1852  179.9166  181.8625  200.0997  201.5240
 416  1  -19.7860  -19.7622  -18.7613  -18.7420  -12.5458  -12.5302   -7.9617   -7.7882   -4.0839   -3.9193
           2.3818    2.4725    6.4992    6.6612    7.7326    8.3742   12.2564   12.9405   14.2523   14.5413
   16.5885   17.0926   18.2061   18.3894   19.8236   20.3610   23.5771   24.3912   27.4908   28.1484
   29.3707   29.4588   33.6172   34.4776   36.1723   38.1020   39.4576   41.7338   46.9653   48.2743
   50.9313   51.7914   52.0639   56.9358   57.8117   57.9373   58.5604   60.5537   64.1982   64.4667
   66.0469   66.3842   69.6861   69.8273   84.5401   85.8353   88.8139   90.1476   92.7400   94.9688
   95.0620   97.0940   97.6140   98.6863  104.4530  106.3949  107.8595  109.2454  113.1459  114.4414
  116.5287  118.6890  124.3775  124.7411  125.2213  126.1111  130.3736  133.1327  133.9101  136.6799
  145.7085  147.5304  169.6645  170.7605  181.8211  183.6666  203.7392  206.2604
 417  1  -20.3329  -20.2900  -18.3565  -18.3215  -12.0643  -12.0510   -8.3390   -8.0950   -3.8058   -3.5899
           1.7880    1.8708    5.8880    6.8571    7.9886    8.8205   13.8247   14.1375   14.1396   14.2196
   16.7644   17.1123   17.3229   17.9719   20.0065   20.6513   24.8549   25.1599   25.9107   27.0501
   27.9093   30.5947   33.3157   33.5904   34.6937   37.3047   41.9155   44.9595   46.2469   47.3257
   48.8609   51.4080   52.1557   52.3621   58.3493   58.9107   61.6414   63.1029   63.1659   63.6544
   63.7480   64.4355   68.2583   69.6927   84.3605   87.1207   90.4126   92.2143   92.9286   94.8312
   98.1052   98.1281   99.2221   99.5398  103.0024  106.0523  107.7928  110.4970  114.2989  115.3497
  115.7468  117.4452  119.3778  120.3148  124.6387  125.4895  131.2700  132.0322  135.0031  137.7248
  143.2800  145.1396  169.9027  172.8142  184.0000  185.4068  202.2145  204.9302
 418  1  -20.9361  -20.8876  -17.4337  -17.3994  -12.4059  -12.3905   -8.7812   -8.4555   -3.1672   -2.9357
           2.4543    2.5395    5.0878    6.1624    8.6129    9.2153   11.9676   12.3258   13.8276   14.3525
   16.3380   16.7724   18.1600   18.7471   20.3767   20.7915   23.6971   24.5699   27.7286   28.6308
   29.7285   29.8701   34.2741   35.3260   36.8573   38.3581   39.5492   41.4510   46.1618   46.9273
   50.3368   50.4720   52.2732   56.8673   57.5461   57.9758   59.8803   60.9771   63.4724   63.9172
   66.1216   67.2852   68.9263   70.5056   83.5869   87.0720   88.6331   89.8006   92.3458   93.6476
   95.0294   97.2977   97.8861  100.2900  104.3856  105.7501  107.8497  108.5878  111.4838  114.4852
  118.1602  119.3867  122.0851  122.5924  127.2079  128.6597  130.1447  132.5906  134.6975  136.1969
  148.9293  151.2085  166.7912  169.2533  183.0131  184.9870  200.3151  202.2307
 419  1  -21.3220  -21.2713  -16.3396  -16.3104  -13.3270  -13.3084   -9.1015   -8.7327   -2.4600   -2.2728
           4.1051    4.1500    4.6187    5.4930    8.2481    8.6275    9.8221   10.5224   13.7929   14.6406
   16.3198   16.7366   17.7480   18.9265   19.8195   20.1854   24.4973   24.8227   28.8441   29.7559
   33.6579   33.9910   35.1040   37.4611   38.3497   38.6152   40.3103   41.7727   43.9766   45.2427
   48.8056   49.1990   54.7150   55.6869   57.7753   59.1219   60.5450   60.8195   64.0557   65.2323
   68.5951   69.4159   69.9198   71.7878   83.5175   86.9067   87.8733   88.5942   90.0734   91.5413
   92.7002   95.2118   96.1362   98.4197  105.2019  107.6689  110.5287  111.2968  111.8611  113.7897
  118.5939  119.2782  124.0578  124.3032  124.9484  125.5668  127.6842  127.8382  133.0126  135.4207
  156.7155  159.5341  164.1203  164.6851  180.2708  182.4495  196.2320  196.8423
 420  1  -21.4527  -21.4012  -15.5781  -15.5638  -14.0578  -14.0460   -9.2160   -8.8343   -2.1254   -1.9871
           4.2013    5.0427    6.2168    6.2483    6.7762    6.9364    8.9396    9.9485   14.3618   15.0893
   15.9238   16.6204   17.5347   18.8954   19.4401   19.6881   24.7236   25.3799   29.9476   30.1390
   34.4046   34.7474   37.4174   38.1346   39.7524   41.1395   42.0877   42.7815   43.7703   43.9416
   51.3627   52.4719   53.8175   53.8608   58.0255   58.1066   63.1285   63.8227   65.2948   66.1289
   69.7378   71.6585   73.6370   73.7741   80.0069   83.3449   87.9085   88.0722   88.7606   90.1444
   94.1232   95.3952   96.7696   97.5285   98.4757  100.1548  109.4357  111.8885  113.6556  115.6934
  118.6752  119.2270  120.7101  121.7528  123.7934  124.6009  125.8927  127.2074  132.0341  132.4072
  152.7415  155.1778  164.6220  166.1712  181.7401  183.6596  192.5258  192.5653
 421  1  -21.3220  -21.2713  -16.3395  -16.3104  -13.3271  -13.3085   -9.1016   -8.7328   -2.4599   -2.2727
           4.1052    4.1500    4.6189    5.4931    8.2476    8.6274    9.8223   10.5226   13.7927   14.6404
   16.3195   16.7363   17.7488   18.9279   19.8188   20.1849   24.4975   24.8239   28.8417   29.7535
   33.6589   33.9917   35.1074   37.4655   38.3503   38.6164   40.3101   41.7713   43.9766   45.2424
   48.8063   49.1996   54.7143   55.6855   57.7743   59.1217   60.5445   60.8191   64.0605   65.2334
   68.5954   69.4159   69.9209   71.7878   83.5180   86.9033   87.8730   88.5950   90.0741   91.5414
   92.7064   95.2132   96.1393   98.4210  105.2155  107.6705  110.5341  111.2929  111.8617  113.7947
  118.5943  119.2756  124.0594  124.3087  124.9467  125.5659  127.6848  127.8404  133.0218  135.4294
  156.7161  159.5368  164.1196  164.6854  180.2634  182.4515  196.2190  196.8268
 422  1  -20.9361  -20.8877  -17.4336  -17.3994  -12.4059  -12.3906   -8.7814   -8.4556   -3.1671   -2.9354
           2.4544    2.5396    5.0878    6.1624    8.6125    9.2153   11.9678   12.3263   13.8275   14.3526
   16.3372   16.7716   18.1607   18.7464   20.3785   20.7936   23.6980   24.5695   27.7277   28.6289
   29.7290   29.8661   34.2767   35.3273   36.8611   38.3638   39.5495   41.4518   46.1573   46.9237
   50.3386   50.4743   52.2728   56.8684   57.5448   57.9747   59.8798   60.9772   63.4756   63.9184
   66.1223   67.2879   68.9267   70.5070   83.5882   87.0711   88.6360   89.8004   92.3474   93.6505
   95.0309   97.2964   97.8905  100.2983  104.3921  105.7558  107.8570  108.5917  111.4807  114.4900
  118.1589  119.3828  122.0880  122.5968  127.2083  128.6634  130.1481  132.5901  134.6998  136.2002
  148.9301  151.2111  166.7910  169.2496  183.0097  184.9790  200.2937  202.2104
 423  1  -20.3329  -20.2901  -18.3564  -18.3214  -12.0644  -12.0510   -8.3393   -8.0951   -3.8057   -3.5894
           1.7881    1.8709    5.8880    6.8572    7.9881    8.8206   13.8250   14.1377   14.1398   14.2204
   16.7647   17.1093   17.3206   17.9721   20.0099   20.6566   24.8554   25.1600   25.9101   27.0501
   27.9051   30.5882   33.3160   33.5908   34.7010   37.3130   41.9165   44.9603   46.2473   47.3209
   48.8553   51.4107   52.1560   52.3641   58.3492   58.9086   61.6444   63.1037   63.1668   63.6534
   63.7472   64.4420   68.2586   69.6955   84.3635   87.1235   90.4135   92.2146   92.9290   94.8297
   98.1090   98.1297   99.2217   99.5396  103.0128  106.0664  107.7931  110.5010  114.3012  115.3466
  115.7516  117.4455  119.3739  120.3095  124.6397  125.4898  131.2702  132.0351  135.0062  137.7245
  143.2833  145.1413  169.9037  172.8096  183.9981  185.3946  202.1858  204.9059
siesta: Fermi energy =      -5.939165 eV

siesta: Program's energy decomposition (eV):
siesta: Ebs     =      -236.278864
siesta: Eions   =      1035.253114
siesta: Ena     =       233.500440
siesta: Ekin    =       442.419695
siesta: Enl     =       -46.186722
siesta: Eso     =         0.000000
siesta: Edftu   =         0.000000
siesta: DEna    =       -22.630340
siesta: DUscf   =         1.938478
siesta: DUext   =         0.000000
siesta: Exc     =      -204.511879
siesta: eta*DQ  =         0.000000
siesta: Emadel  =         0.000000
siesta: Emeta   =         0.000000
siesta: Emolmec =        -0.408191
siesta: Ekinion =         0.000000
siesta: Eharris =      -631.131204
siesta: Etot    =      -631.131633
siesta: FreeEng =      -631.131633

siesta: Final energy (eV):
siesta:  Band Struct. =    -236.278864
siesta:       Kinetic =     442.419695
siesta:       Hartree =     200.660105
siesta:       Edftu   =       0.000000
siesta:       Eso     =       0.000000
siesta:    Ext. field =       0.000000
siesta:   Exch.-corr. =    -204.511879
siesta:  Ion-electron =    -828.493220
siesta:       Ion-ion =    -240.798143
siesta:       Ekinion =       0.000000
siesta:         Total =    -631.131633
siesta:         Fermi =      -5.939165

siesta: Stress tensor (static) (eV/Ang**3):
siesta:    -0.000001   -0.000058    0.000000
siesta:    -0.000058   -0.000122   -0.000000
siesta:     0.000000   -0.000000   -0.000108

siesta: Constrained stress tensor (static) (eV/Ang**3):
siesta:    -0.000001   -0.000058    0.000000
siesta:    -0.000058   -0.000122   -0.000000
siesta:     0.000000   -0.000000   -0.000108

siesta: Cell volume =         36.752689 Ang**3

siesta: Pressure (static):
siesta:                Solid            Molecule  Units
siesta:           0.00000084          0.00000087  Ry/Bohr**3
siesta:           0.00007686          0.00007957  eV/Ang**3
siesta:           0.12313843          0.12748645  kBar
(Free)E+ p_basis*V_orbitals  =        -628.291756
(Free)Eharris+ p_basis*V_orbitals  =        -628.291327

cite: Please see "graphite_c6_full.bib" for an exhaustive BiBTeX file.
cite: Please clearly indicate Siesta version in published work: v4.1-b4-351
cite: This calculation has made use of the following articles
cite: which are encouraged to be cited in a published work.
        Primary SIESTA paper
          DOI: www.doi.org/10.1088/0953-8984/14/11/302

>> End of run:  22-JAN-2021  23:09:21
Job completed
[1611353361.322233] [n-62-21-35:26113:0]          mpool.c:42   UCX  WARN  object 0x2d8b380 was not returned to mpool ucp_requests
[1611353361.322294] [n-62-21-35:26110:0]          mpool.c:42   UCX  WARN  object 0x2d1c380 was not returned to mpool ucp_requests
[1611353361.322316] [n-62-21-35:26115:0]          mpool.c:42   UCX  WARN  object 0x40a7700 was not returned to mpool ucp_requests
