Siesta Version: siesta-3.2
Architecture  : SIESTA_ARCH
Compiler flags: FFLAGS
PARALLEL version
NetCDF support

* Running on    4 nodes in parallel
>> Start of run:  24-MAR-2013  18:28:13

                           ***********************       
                           *  WELCOME TO SIESTA  *       
                           ***********************       

reinit: Reading from standard input
************************** Dump of input data file ****************************
SystemName          Water molecule -- Populations + Bader charge
SystemLabel         h2o-pop
NumberOfAtoms       3
NumberOfSpecies     2
#PartialChargesAtEveryScfStep T
WriteHirshfeldPop T
WriteVoronoiPop T
WriteMullikenPop 1
Save-Bader-Charge T
# Note the high cutoff for the Bader-charge model cores
MeshCutoff  500 Ry
%block ChemicalSpeciesLabel
 1  8  O      # Species index, atomic number, species label
 2  1  H
%endblock ChemicalSpeciesLabel
AtomicCoordinatesFormat  Ang
%block AtomicCoordinatesAndAtomicSpecies
 0.000  0.000  0.000  1
 0.757  0.586  0.000  2
-0.757  0.586  0.000  2
%endblock AtomicCoordinatesAndAtomicSpecies
save-rho T
save-delta-rho T
save-total-potential T
save-neutral-atom-potential T
save-hs T
************************** End of input data file *****************************

reinit: -----------------------------------------------------------------------
reinit: System Name: Water molecule -- Populations + Bader charge
reinit: -----------------------------------------------------------------------
reinit: System Label: h2o-pop                                                     
reinit: -----------------------------------------------------------------------

initatom: Reading input for the pseudopotentials and atomic orbitals ----------
 Species number:            1  Label: O Atomic number:           8
 Species number:            2  Label: H Atomic number:           1
Ground state valence configuration:   2s02  2p04
Reading pseudopotential information in formatted form from O.psf

Valence configuration for pseudopotential generation:
2s( 2.00) rc: 1.14
2p( 4.00) rc: 1.14
3d( 0.00) rc: 1.14
4f( 0.00) rc: 1.14
Ground state valence configuration:   1s01
Reading pseudopotential information in formatted form from H.psf

Valence configuration for pseudopotential generation:
1s( 1.00) rc: 1.25
2p( 0.00) rc: 1.25
3d( 0.00) rc: 1.25
4f( 0.00) rc: 1.25
For O, standard SIESTA heuristics set lmxkb to 3
 (one more than the basis l, including polarization orbitals).
Use PS.lmax or PS.KBprojectors blocks to override.
For H, standard SIESTA heuristics set lmxkb to 2
 (one more than the basis l, including polarization orbitals).
Use PS.lmax or PS.KBprojectors blocks to override.

<basis_specs>
===============================================================================
O                    Z=   8    Mass=  16.000        Charge= 0.17977+309
Lmxo=1 Lmxkb= 3    BasisType=split      Semic=F
L=0  Nsemic=0  Cnfigmx=2
          n=1  nzeta=2  polorb=0
            splnorm:   0.15000    
               vcte:    0.0000    
               rinn:    0.0000    
                rcs:    0.0000      0.0000    
            lambdas:    1.0000      1.0000    
L=1  Nsemic=0  Cnfigmx=2
          n=1  nzeta=2  polorb=1
            splnorm:   0.15000    
               vcte:    0.0000    
               rinn:    0.0000    
                rcs:    0.0000      0.0000    
            lambdas:    1.0000      1.0000    
-------------------------------------------------------------------------------
L=0  Nkbl=1  erefs: 0.17977+309
L=1  Nkbl=1  erefs: 0.17977+309
L=2  Nkbl=1  erefs: 0.17977+309
L=3  Nkbl=1  erefs: 0.17977+309
===============================================================================
</basis_specs>

atom: Called for O                     (Z =   8)

read_vps: Pseudopotential generation method:
read_vps: ATM3      Troullier-Martins                       
Total valence charge:    6.00000

xc_check: Exchange-correlation functional:
xc_check: Ceperley-Alder
V l=0 = -2*Zval/r beyond r=  1.1278
V l=1 = -2*Zval/r beyond r=  1.1278
V l=2 = -2*Zval/r beyond r=  1.1278
V l=3 = -2*Zval/r beyond r=  1.1138
All V_l potentials equal beyond r=  1.1278
This should be close to max(r_c) in ps generation
All pots = -2*Zval/r beyond r=  1.1278

VLOCAL1: 99.0% of the norm of Vloc inside     34.126 Ry
VLOCAL1: 99.9% of the norm of Vloc inside     77.774 Ry
atom: Maximum radius for 4*pi*r*r*local-pseudopot. charge    1.37759
atom: Maximum radius for r*vlocal+2*Zval:    1.18566
GHOST: No ghost state for L =  0
GHOST: No ghost state for L =  1
GHOST: No ghost state for L =  2
GHOST: No ghost state for L =  3

KBgen: Kleinman-Bylander projectors: 
   l= 0   rc=  1.294105   el= -1.742414   Ekb=  9.135903   kbcos=  0.326910
   l= 1   rc=  1.294105   el= -0.676589   Ekb= -8.124878   kbcos= -0.395047
   l= 2   rc=  1.448233   el=  0.002386   Ekb= -2.039267   kbcos= -0.003484
   l= 3   rc=  1.561052   el=  0.003508   Ekb= -0.799141   kbcos= -0.000344

KBgen: Total number of  Kleinman-Bylander projectors:   16
atom: -------------------------------------------------------------------------

atom: SANKEY-TYPE ORBITALS:
atom: Selected multiple-zeta basis: split     

SPLIT: Orbitals with angular momentum L= 0

SPLIT: Basis orbitals for state 2s

SPLIT: PAO cut-off radius determined from an
SPLIT: energy shift=  0.020000 Ry

   izeta = 1
                 lambda =    1.000000
                     rc =    3.305093
                 energy =   -1.723766
                kinetic =    1.614911
    potential(screened) =   -3.338677
       potential(ionic) =  -11.304675

   izeta = 2
                 rmatch =    2.510382
              splitnorm =    0.150000
                 energy =   -1.471299
                kinetic =    2.446434
    potential(screened) =   -3.917732
       potential(ionic) =  -12.476133

SPLIT: Orbitals with angular momentum L= 1

SPLIT: Basis orbitals for state 2p

SPLIT: PAO cut-off radius determined from an
SPLIT: energy shift=  0.020000 Ry

   izeta = 1
                 lambda =    1.000000
                     rc =    3.937239
                 energy =   -0.658841
                kinetic =    5.005986
    potential(screened) =   -5.664827
       potential(ionic) =  -13.452360

   izeta = 2
                 rmatch =    2.541963
              splitnorm =    0.150000
                 energy =   -0.367441
                kinetic =    7.530509
    potential(screened) =   -7.897949
       potential(ionic) =  -16.611953

POLgen: Perturbative polarization orbital with L=  2

POLgen: Polarization orbital for state 2p

   izeta = 1
                     rc =    3.937239
                 energy =    2.398520
                kinetic =    4.716729
    potential(screened) =   -2.318209
       potential(ionic) =   -8.603170
atom: Total number of Sankey-type orbitals: 13

atm_pop: Valence configuration (for local Pseudopot. screening):
 2s( 2.00)                                                            
 2p( 4.00)                                                            
Vna: chval, zval:    6.00000   6.00000

Vna:  Cut-off radius for the neutral-atom potential:   3.937239

atom: _________________________________________________________________________

<basis_specs>
===============================================================================
H                    Z=   1    Mass=  1.0100        Charge= 0.17977+309
Lmxo=0 Lmxkb= 2    BasisType=split      Semic=F
L=0  Nsemic=0  Cnfigmx=1
          n=1  nzeta=2  polorb=1
            splnorm:   0.15000    
               vcte:    0.0000    
               rinn:    0.0000    
                rcs:    0.0000      0.0000    
            lambdas:    1.0000      1.0000    
-------------------------------------------------------------------------------
L=0  Nkbl=1  erefs: 0.17977+309
L=1  Nkbl=1  erefs: 0.17977+309
L=2  Nkbl=1  erefs: 0.17977+309
===============================================================================
</basis_specs>

atom: Called for H                     (Z =   1)

read_vps: Pseudopotential generation method:
read_vps: ATM3      Troullier-Martins                       
Total valence charge:    1.00000

xc_check: Exchange-correlation functional:
xc_check: Ceperley-Alder
V l=0 = -2*Zval/r beyond r=  1.2343
V l=1 = -2*Zval/r beyond r=  1.2189
V l=2 = -2*Zval/r beyond r=  1.2189
All V_l potentials equal beyond r=  1.2343
This should be close to max(r_c) in ps generation
All pots = -2*Zval/r beyond r=  1.2343

VLOCAL1: 99.0% of the norm of Vloc inside     28.493 Ry
VLOCAL1: 99.9% of the norm of Vloc inside     64.935 Ry
atom: Maximum radius for 4*pi*r*r*local-pseudopot. charge    1.45251
atom: Maximum radius for r*vlocal+2*Zval:    1.21892
GHOST: No ghost state for L =  0
GHOST: No ghost state for L =  1
GHOST: No ghost state for L =  2

KBgen: Kleinman-Bylander projectors: 
   l= 0   rc=  1.364359   el= -0.467325   Ekb= -2.005361   kbcos= -0.336422
   l= 1   rc=  1.434438   el=  0.001430   Ekb= -0.501708   kbcos= -0.021697
   l= 2   rc=  1.470814   el=  0.002365   Ekb= -0.190555   kbcos= -0.002281

KBgen: Total number of  Kleinman-Bylander projectors:    9
atom: -------------------------------------------------------------------------

atom: SANKEY-TYPE ORBITALS:
atom: Selected multiple-zeta basis: split     

SPLIT: Orbitals with angular momentum L= 0

SPLIT: Basis orbitals for state 1s

SPLIT: PAO cut-off radius determined from an
SPLIT: energy shift=  0.020000 Ry

   izeta = 1
                 lambda =    1.000000
                     rc =    4.828263
                 energy =   -0.449375
                kinetic =    0.929372
    potential(screened) =   -1.378747
       potential(ionic) =   -1.915047

   izeta = 2
                 rmatch =    3.854947
              splitnorm =    0.150000
                 energy =   -0.336153
                kinetic =    1.505294
    potential(screened) =   -1.841447
       potential(ionic) =   -2.413582

POLgen: Perturbative polarization orbital with L=  1

POLgen: Polarization orbital for state 1s

   izeta = 1
                     rc =    4.828263
                 energy =    0.706972
                kinetic =    1.396397
    potential(screened) =   -0.689424
       potential(ionic) =   -1.169792
atom: Total number of Sankey-type orbitals:  5

atm_pop: Valence configuration (for local Pseudopot. screening):
 1s( 1.00)                                                            
Vna: chval, zval:    1.00000   1.00000

Vna:  Cut-off radius for the neutral-atom potential:   4.828263

atom: _________________________________________________________________________

prinput: Basis input ----------------------------------------------------------

PAO.BasisType split     

%block ChemicalSpeciesLabel
    1    8 O                       # Species index, atomic number, species label
    2    1 H                       # Species index, atomic number, species label
%endblock ChemicalSpeciesLabel

%block PAO.Basis                 # Define Basis set
O                     2                    # Species label, number of l-shells
 n=2   0   2                         # n, l, Nzeta 
   3.305      2.510   
   1.000      1.000   
 n=2   1   2 P   1                   # n, l, Nzeta, Polarization, NzetaPol
   3.937      2.542   
   1.000      1.000   
H                     1                    # Species label, number of l-shells
 n=1   0   2 P   1                   # n, l, Nzeta, Polarization, NzetaPol
   4.828      3.855   
   1.000      1.000   
%endblock PAO.Basis

prinput: ----------------------------------------------------------------------

Dumping basis to NetCDF file O.ion.nc
Dumping basis to NetCDF file H.ion.nc
coor:   Atomic-coordinates input format  =     Cartesian coordinates
coor:                                          (in Angstroms)

siesta: Atomic coordinates (Bohr) and species
siesta:      0.00000   0.00000   0.00000  1        1
siesta:      1.43052   1.10738   0.00000  2        2
siesta:     -1.43052   1.10738   0.00000  2        3

siesta: Automatic unit cell vectors (Ang):
siesta:    7.286412    0.000000    0.000000
siesta:    0.000000    5.746952    0.000000
siesta:    0.000000    0.000000    5.621012

siesta: System type = molecule  

initatomlists: Number of atoms, orbitals, and projectors:      3    23    34

siesta: ******************** Simulation parameters ****************************
siesta:
siesta: The following are some of the parameters of the simulation.
siesta: A complete list of the parameters used, including default values,
siesta: can be found in file out.fdf
siesta:
redata: Non-Collinear-spin run           =     F
redata: SpinPolarized (Up/Down) run      =     F
redata: Number of spin components        =     1
redata: Long output                      =     F
redata: Number of Atomic Species         =        2
redata: Charge density info will appear in .RHO file
redata: Write Mulliken Pop.              =     Atomic and Orbital charges
redata: Mesh Cutoff                      =   500.0000  Ry
redata: Net charge of the system         =     0.0000 |e|
redata: Max. number of SCF Iter          =       50
redata: Mixing is linear
redata: Mix DM in first SCF step ?       =     F
redata: Write Pulay info on disk?        =     F
redata: Discard 1st Pulay DM after  kick =     F
redata: New DM Mixing Weight             =     0.2500
redata: New DM Occupancy tolerance       = 0.000000000001
redata: No kicks to SCF
redata: DM Mixing Weight for Kicks       =     0.5000
redata: DM Tolerance for SCF             =     0.000100
redata: Require Energy convergence for SCF =     F
redata: DM Energy tolerance for SCF      =     0.000100 eV
redata: Require Harris convergence for SCF =     F
redata: DM Harris energy tolerance for SCF =     0.000100 eV
redata: Using Saved Data (generic)   =     F
redata: Use continuation files for DM    =     F
redata: Neglect nonoverlap interactions  =     F
redata: Method of Calculation            =     Diagonalization
redata: Divide and Conquer               =     T
redata: Electronic Temperature           =     0.0019  Ry
redata: Fix the spin of the system       =     F
redata: Dynamics option                  =     Verlet MD run
redata: Initial MD time step             =        1
redata:   Final MD time step             =        1
redata: Length of MD time step           =     1.0000  fs
redata: Initial Temperature of MD run    =     0.0000  K
redata: Perform a MD quench              =     F
redata: ***********************************************************************
Total number of electrons:     8.000000
Total ionic charge:     8.000000

* ProcessorY, Blocksize:    2   6

 Kpoints in:            1 . Kpoints trimmed:            1

siesta: k-grid: Number of k-points =     1
siesta: k-grid: Cutoff (effective) =     2.811 Ang
siesta: k-grid: Supercell and displacements
siesta: k-grid:    1   0   0      0.000
siesta: k-grid:    0   1   0      0.000
siesta: k-grid:    0   0   1      0.000

* Maximum dynamic memory allocated =     2 MB

siesta:                 ==============================
                            Begin MD step =      1
                        ==============================

outcell: Unit cell vectors (Ang):
        7.286412    0.000000    0.000000
        0.000000    5.746952    0.000000
        0.000000    0.000000    5.621012

outcell: Cell vector modules (Ang)   :    7.286412    5.746952    5.621012
outcell: Cell angles (23,13,12) (deg):     90.0000     90.0000     90.0000
outcell: Cell volume (Ang**3)        :    235.3780
New_DM. Step:     1
Initializing Density Matrix...

InitMesh: MESH =   100 x    80 x    80 =      640000
InitMesh: Mesh cutoff (required, used) =   500.000   520.564 Ry

* Maximum dynamic memory allocated =    16 MB

stepf: Fermi-Dirac step function

siesta: Program's energy decomposition (eV):
siesta: Ebs     =      -124.087435
siesta: Eions   =       815.854478
siesta: Ena     =       175.154321
siesta: Ekin    =       341.667405
siesta: Enl     =       -52.736757
siesta: DEna    =        -0.000003
siesta: DUscf   =         0.000000
siesta: DUext   =         0.000000
siesta: Exc     =      -109.880455
siesta: eta*DQ  =         0.000000
siesta: Emadel  =         0.000000
siesta: Emeta   =         0.000000
siesta: Emolmec =         0.000000
siesta: Ekinion =         0.000000
siesta: Eharris =      -466.520239
siesta: Etot    =      -461.649967
siesta: FreeEng =      -461.649967

siesta: iscf   Eharris(eV)      E_KS(eV)   FreeEng(eV)   dDmax  Ef(eV)
siesta:    1     -466.5202     -461.6500     -461.6500  1.4319 -4.4336
timer: Routine,Calls,Time,% = IterSCF        1       6.050  79.41
elaps: Routine,Calls,Wall,% = IterSCF        1       1.527  78.67
siesta:    2     -467.2396     -464.9982     -464.9982  0.2134  0.2173
siesta:    3     -465.9186     -465.2988     -465.2988  0.0603 -1.4875
siesta:    4     -465.8161     -465.4340     -465.4340  0.0237 -1.9528
siesta:    5     -465.8070     -465.5278     -465.5278  0.0121 -2.0842
siesta:    6     -465.8061     -465.5974     -465.5974  0.0072 -2.1200
siesta:    7     -465.8059     -465.6495     -465.6495  0.0048 -2.1284
siesta:    8     -465.8059     -465.6886     -465.6886  0.0033 -2.1295
siesta:    9     -465.8059     -465.7180     -465.7180  0.0024 -2.1289
siesta:   10     -465.8059     -465.7400     -465.7400  0.0017 -2.1281
siesta:   11     -465.8059     -465.7564     -465.7564  0.0012 -2.1275
siesta:   12     -465.8059     -465.7688     -465.7688  0.0009 -2.1270
siesta:   13     -465.8059     -465.7781     -465.7781  0.0007 -2.1267
siesta:   14     -465.8059     -465.7850     -465.7850  0.0005 -2.1265
siesta:   15     -465.8059     -465.7903     -465.7903  0.0004 -2.1264
siesta:   16     -465.8059     -465.7942     -465.7942  0.0003 -2.1263
siesta:   17     -465.8059     -465.7971     -465.7971  0.0002 -2.1263
siesta:   18     -465.8059     -465.7993     -465.7993  0.0002 -2.1262
siesta:   19     -465.8059     -465.8010     -465.8010  0.0001 -2.1262
siesta:   20     -465.8059     -465.8022     -465.8022  0.0001 -2.1262

siesta: E_KS(eV) =             -465.8031

siesta: E_KS - E_eggbox =      -465.8031

siesta: Atomic forces (eV/Ang):
----------------------------------------
   Tot   -0.000002    0.000000    0.000000
----------------------------------------
   Max    0.736245
   Res    0.444216    sqrt( Sum f_i^2 / 3N )
----------------------------------------
   Max    0.736245    constrained

Stress-tensor-Voigt (kbar):       -7.19       -2.64       -0.11       -0.00       -0.00        0.00
(Free)E + p*V (eV/cell)     -465.3166
Target enthalpy (eV/cell)     -465.8031

siesta: Stress tensor (static) (eV/Ang**3):
        -0.004488   -0.000000    0.000000
        -0.000000   -0.001647   -0.000000
         0.000000   -0.000000   -0.000066

siesta: Pressure (static):          3.31193875  kBar

siesta: Stress tensor (total) (eV/Ang**3):
        -0.004488   -0.000000    0.000000
        -0.000000   -0.001647   -0.000000
         0.000000   -0.000000   -0.000066

siesta: Pressure (total):          3.31193875  kBar

mulliken: Mulliken Atomic and Orbital Populations:

Species: O                   
Atom  Qatom  Qorb
               2s      2s      2py     2pz     2px     2py     2pz     2px     
               2Pdxy   2Pdyz   2Pdz2   2Pdxz   2Pdx2-y2
   1  5.716   0.732   0.618   1.311   1.714   0.588   0.173   0.064   0.494
              0.013   0.003   0.005   0.000   0.001

Species: H                   
Atom  Qatom  Qorb
               1s      1s      1Ppy    1Ppz    1Ppx    
   2  1.142   0.392   0.495   0.109   0.110   0.036
   3  1.142   0.392   0.495   0.109   0.110   0.036

mulliken: Qtot =        8.000

siesta: Temp_ion =       0.000 K

* Maximum dynamic memory allocated =    16 MB

siesta: Program's energy decomposition (eV):
siesta: Ebs     =      -104.324105
siesta: Eions   =       815.854478
siesta: Ena     =       175.154321
siesta: Ekin    =       353.640647
siesta: Enl     =       -63.031359
siesta: DEna    =        -3.294369
siesta: DUscf   =         0.753760
siesta: DUext   =         0.000000
siesta: Exc     =      -113.171648
siesta: eta*DQ  =         0.000000
siesta: Emadel  =         0.000000
siesta: Emeta   =         0.000000
siesta: Emolmec =         0.000000
siesta: Ekinion =         0.000000
siesta: Eharris =      -465.805911
siesta: Etot    =      -465.803126
siesta: FreeEng =      -465.803126

siesta: Final energy (eV):
siesta:  Band Struct. =    -104.324105
siesta:       Kinetic =     353.640647
siesta:       Hartree =     385.081148
siesta:    Ext. field =       0.000000
siesta:   Exch.-corr. =    -113.171648
siesta:  Ion-electron =   -1079.841239
siesta:       Ion-ion =     -11.512034
siesta:       Ekinion =       0.000000
siesta:         Total =    -465.803126

siesta: Atomic forces (eV/Ang):
siesta:      1   -0.000002   -0.736245    0.000000
siesta:      2    0.693855    0.368122    0.000000
siesta:      3   -0.693855    0.368122    0.000000
siesta: ----------------------------------------
siesta:    Tot   -0.000002    0.000000    0.000000

siesta: Stress tensor (static) (eV/Ang**3):
siesta:    -0.004488   -0.000000    0.000000
siesta:    -0.000000   -0.001647   -0.000000
siesta:     0.000000   -0.000000   -0.000066

siesta: Cell volume =        235.378012 Ang**3

siesta: Pressure (static):
siesta:                Solid            Molecule  Units
siesta:           0.00002251         -0.00000034  Ry/Bohr**3
siesta:           0.00206713         -0.00003153  eV/Ang**3
siesta:           3.31193875         -0.05052366  kBar
(Free)E+ p_basis*V_orbitals  =        -465.217959
(Free)Eharris+ p_basis*V_orbitals  =        -465.221673

siesta: Electric dipole (a.u.)  =    0.000000    0.557118    0.000000
siesta: Electric dipole (Debye) =    0.000000    1.416055    0.000000

Hirshfeld Net Atomic Populations:
Atom #    Qatom  Species
     1   -0.234  O                   
     2    0.117  H                   
     3    0.117  H                   

Voronoi Net Atomic Populations:
Atom #    Qatom  Species
     1   -0.175  O                   
     2    0.087  H                   
     3    0.087  H                   

* Maximum dynamic memory allocated : Node    0 =    16 MB
* Maximum dynamic memory allocated : Node    1 =    16 MB
* Maximum dynamic memory allocated : Node    2 =    14 MB
* Maximum dynamic memory allocated : Node    3 =    14 MB

* Maximum memory occured during redistribXZ                   

timer: CPU execution times:
timer:  Routine       Calls   Time/call    Tot.time        %
timer:  siesta            1      24.194      24.194   100.00
timer:  Setup             1       1.096       1.096     4.53
timer:  bands             1       0.004       0.004     0.02
timer:  writewave         1       0.000       0.000     0.00
timer:  KSV_init          1       0.000       0.000     0.00
timer:  IterMD            1      20.252      20.252    83.71
timer:  hsparse           1       0.002       0.002     0.01
timer:  overlap           1       0.332       0.332     1.37
timer:  IterSCF          20       0.916      18.315    75.70
timer:  kinefsm           2       0.144       0.288     1.19
timer:  nlefsm            2       1.458       2.916    12.05
timer:  DHSCF            22       0.834      18.358    75.88
timer:  DHSCF1            1       0.487       0.487     2.01
timer:  DHSCF2            1       1.284       1.284     5.31
timer:  REORD           189       0.002       0.287     1.19
timer:  POISON           23       0.199       4.576    18.91
timer:  DHSCF3           22       0.720      15.845    65.49
timer:  rhoofd           22       0.123       2.704    11.17
timer:  cellXC           22       0.145       3.187    13.17
timer:  vmat             21       0.090       1.885     7.79
timer:  MolMec            2       0.000       0.000     0.00
timer:  diagon           20       0.007       0.150     0.62
timer:  r-eigvec         20       0.007       0.147     0.61
timer:  r-buildHS        20       0.000       0.000     0.00
timer:  rdiag            20       0.007       0.147     0.61
timer:  rdiag1           20       0.000       0.009     0.04
timer:  rdiag2           20       0.000       0.005     0.02
timer:  rdiag3           20       0.006       0.117     0.48
timer:  rdiag4           20       0.000       0.004     0.02
timer:  r-buildD         20       0.000       0.000     0.00
timer:  DHSCF4            1       0.653       0.653     2.70
timer:  dfscf             1       0.552       0.552     2.28
timer:  overfsm           1       0.000       0.000     0.00
timer:  optical           1       0.018       0.018     0.07
  

elaps: ELAPSED times:
elaps:  Routine       Calls   Time/call    Tot.time        %
elaps:  siesta            1       6.195       6.195    99.98
elaps:  Setup             1       0.281       0.281     4.54
elaps:  bands             1       0.001       0.001     0.02
elaps:  writewave         1       0.000       0.000     0.00
elaps:  KSV_init          1       0.000       0.000     0.00
elaps:  IterMD            1       5.093       5.093    82.20
elaps:  hsparse           1       0.000       0.000     0.00
elaps:  overlap           1       0.072       0.072     1.16
elaps:  IterSCF          20       0.230       4.596    74.18
elaps:  kinefsm           2       0.030       0.060     0.97
elaps:  nlefsm            2       0.386       0.773    12.48
elaps:  DHSCF            22       0.218       4.785    77.23
elaps:  DHSCF1            1       0.129       0.129     2.08
elaps:  DHSCF2            1       0.340       0.340     5.49
elaps:  REORD           189       0.000       0.075     1.21
elaps:  POISON           23       0.050       1.149    18.54
elaps:  DHSCF3           22       0.187       4.103    66.22
elaps:  rhoofd           22       0.035       0.761    12.28
elaps:  cellXC           22       0.036       0.796    12.85
elaps:  vmat             21       0.022       0.470     7.59
elaps:  MolMec            2       0.000       0.000     0.00
elaps:  diagon           20       0.002       0.037     0.60
elaps:  r-eigvec         20       0.002       0.037     0.60
elaps:  r-buildHS        20       0.000       0.000     0.00
elaps:  rdiag            20       0.002       0.037     0.60
elaps:  rdiag1           20       0.000       0.003     0.05
elaps:  rdiag2           20       0.000       0.001     0.02
elaps:  rdiag3           20       0.001       0.030     0.48
elaps:  rdiag4           20       0.000       0.001     0.02
elaps:  r-buildD         20       0.000       0.000     0.00
elaps:  DHSCF4            1       0.191       0.191     3.08
elaps:  dfscf             1       0.160       0.160     2.58
elaps:  overfsm           1       0.000       0.000     0.00
elaps:  optical           1       0.000       0.000     0.00
  
>> End of run:  24-MAR-2013  18:28:19
