Siesta Version  : v4.1-b4-351
Architecture    : x86_64-linux-n-62-26-19
Compiler version: GNU Fortran (GCC) 9.3.0
Compiler flags  : mpifort -m64 -fPIC -O3 -march=native -ftree-vectorize -fexpensive-optimizatioons -funroll-loops -fprefetch-loop-arrays -fno-second-underscore  -flto
PP flags        : -I/dtu/sw/dcc/SL73/2020-aug/generic/build-tools/1.0/include -I/dtu/sw/dcc/SL773/2020-aug/generic/gcc/9.3.0/include -I/dtu/sw/dcc/SL73/2020-aug/generic/gcc/9.3.0/include -I/dtu/sw/dcc/SL73/2020-aug/XeonE5-2660v3/gnu/9.3.0/zlib/1.2.11/include -I/dtu/sw/dcc/SL73/2020-aug/generic/numactl/2.0.12/include -I/dtu/sw/dcc/SL73/2020-aug/XeonE5-2660v3/gnu/9.3.0/libxml2/2.9.10/include -I/dtu/sw/dcc/SL73/2020-aug/XeonE5-2660v3/gnu/9.3.0/hwloc/2.2.0/include -I/dtu/sw/dcc/SL73/2020-aug/XeonE5-2660v3/gnu/9.3.0/knem/1.1.4/include -I/dtu/sw/dcc/SL73/2020-aug/XeonE5-2660v3/gnu/9.3.0/ucx/1.8.1/include -I/dtu/sw/dcc/SL73/2020-aug/XeonE5-2660v3/gnu/9.3.0/openmpi/4.0.4/include -I/dtu/sw/dcc/SL73/2020-aug/XeonE5-2660v3/gnu/9.3.0/szip/2.1.1/include -I/dtu/sw/dcc/SL73/2020-aug/XeonE5-2660v3/gnu/9.3.0/hdf5/1.12.0/include -I/dtu/sw/dcc/SL73/2020-aug/XeonE5-2660v3/gnu/9.3.0/pnetcdf/1.12.1/include -I/dtu/sw/dcc/SL73/2020-aug/generic/gen-zlib/1.2.11/include -I/dtu/sw/dcc/SL73/2020-aug/generic/openssl/1.1.1/include -I/dtu/sw/dcc/SL73/2020-aug/generic/libssh2/1.8.2/include -I/dtu/sw/dcc/SL73/2020-aug/generic/curl/7.65.1/include -I/dtu/sw/dcc/SL73/2020-aug/XeonE5-2660v3/gnu/9.3.0/netcdf/4.7.4/include -I/dtu/sw/dcc/SL73/2020-aug/XeonE5-2660v3/gnu/9.3.0/flook/0.8.1/include -I/dtu/sw/dcc/SL73/2020-aug/XeonE5-2660v3/gnu/9.3.0/fftw/3.3.8/include -I/dtu/sw/dcc/SL73/2020-aug/XeonE5-2660v3/gnu/9.3.0/parmetis/4.0.3/include -I/dtu/sw/dcc/SL73/2020-aug/XeonE5-2660v3/gnu/9.3.0/scalapack/2.1.0/include -I/dtu/sw/dcc/SL73/2020-aug/XeonE5-2660v3/gnu/9.3.0/lapack/3.9.0/include -I/dtu/sw/dcc/SL73/2020-aug/XeonE5-2660v3/gnu/9.3.0/blis/0.7.0/include -I/dtu/sw/dcc/SL73/2020-aug/XeonE5-2660v3/gnu/9.3.0/scotch/6.0.9/include -I/dtu/sw/dcc/SL73/2020-aug/XeonE5-2660v3/gnu/9.3.0/mumps/5.3.3/include -I/dtu/sw/dcc/SL73/2020-aug/XeonE5-2660v3/gnu/9.3.0/elpa/2020.05.001/include -DSIESTA__ELPA -DMPI -DFC_HAVE_FLUSH -DFC_HAVE_ABORT -DCDF -DCDF4 -DSIESTA__FLOOK  -DNCDF -DNCDF_4 -DNCDF_PARALLEL -DTS_NOCHECKS -DSIESTA__METIS -DSIESTA__MUMPS -DSIESTA__MRRR -I/dtu/sw/dcc/SL73/2020-aug/XeonE5-2660v3/gnu/9.3.0/elpa/2020.05.001/include/elpa
Libraries       : libncdf.a libfdict.a -lnetcdff -lnetcdf -lpnetcdf -lhdf5_hl -lhdf5 -lz  -lzmuumps -lmumps_common -lesmumps -lscotch -lscotcherr -lpord -lparmetis -lmetis -lelpa -lscalapack -llapack -lblis  -L/dtu/sw/dcc/SL73/2020-aug/XeonE5-2660v3/gnu/9.3.0/flook/0.8.1/lib -Wl,-rpath=/dtu/sw/dcc/SL73/2020-aug/XeonE5-2660v3/gnu/9.3.0/flook/0.8.1/lib -lflookall -ldl  -flto -fuse-linker-plugin  -lmetis
PARALLEL version
NetCDF support
NetCDF-4 support
NetCDF-4 MPI-IO support
METIS ordering support
Lua support

* Running on 8 nodes in parallel
>> Start of run:  22-JAN-2021  23:10:43

                           ***********************       
                           *  WELCOME TO SIESTA  *       
                           ***********************       

reinit: Reading from ../h2o_orderN.fdf

reinit: -----------------------------------------------------------------------
reinit: System Name: Water molecule, using order-N method
reinit: -----------------------------------------------------------------------
reinit: System Label: h2o_orderN
reinit: -----------------------------------------------------------------------

initatom: Reading input for the pseudopotentials and atomic orbitals ----------
Species number:   1 Atomic number:    8 Label: O
Species number:   2 Atomic number:    1 Label: H

Ground state valence configuration:   2s02  2p04
Reading pseudopotential information in formatted form from O.psf

Valence configuration for pseudopotential generation:
2s( 2.00) rc: 1.14
2p( 4.00) rc: 1.14
3d( 0.00) rc: 1.14
4f( 0.00) rc: 1.14
Ground state valence configuration:   1s01
Reading pseudopotential information in formatted form from H.psf

Valence configuration for pseudopotential generation:
1s( 1.00) rc: 1.25
2p( 0.00) rc: 1.25
3d( 0.00) rc: 1.25
4f( 0.00) rc: 1.25
For O, standard SIESTA heuristics set lmxkb to 3
 (one more than the basis l, including polarization orbitals).
Use PS.lmax or PS.KBprojectors blocks to override.
For H, standard SIESTA heuristics set lmxkb to 2
 (one more than the basis l, including polarization orbitals).
Use PS.lmax or PS.KBprojectors blocks to override.

<basis_specs>
===============================================================================
O                    Z=   8    Mass=  16.000        Charge= 0.17977+309
Lmxo=1 Lmxkb= 3    BasisType=split      Semic=F
L=0  Nsemic=0  Cnfigmx=2
          i=1  nzeta=2  polorb=0  (2s)
            splnorm:   0.15000    
               vcte:    0.0000    
               rinn:    0.0000    
               qcoe:    0.0000    
               qyuk:    0.0000    
               qwid:   0.10000E-01
                rcs:    0.0000      0.0000    
            lambdas:    1.0000      1.0000    
L=1  Nsemic=0  Cnfigmx=2
          i=1  nzeta=2  polorb=1  (2p)
            splnorm:   0.15000    
               vcte:    0.0000    
               rinn:    0.0000    
               qcoe:    0.0000    
               qyuk:    0.0000    
               qwid:   0.10000E-01
                rcs:    0.0000      0.0000    
            lambdas:    1.0000      1.0000    
-------------------------------------------------------------------------------
L=0  Nkbl=1  erefs: 0.17977+309
L=1  Nkbl=1  erefs: 0.17977+309
L=2  Nkbl=1  erefs: 0.17977+309
L=3  Nkbl=1  erefs: 0.17977+309
===============================================================================
</basis_specs>

atom: Called for O                     (Z =   8)

read_vps: Pseudopotential generation method:
read_vps: ATM3      Troullier-Martins                       
Valence charge for ps generation:    6.00000

xc_check: Exchange-correlation functional:
xc_check: Ceperley-Alder
V l=0 = -2*Zval/r beyond r=  1.1278
V l=1 = -2*Zval/r beyond r=  1.1278
V l=2 = -2*Zval/r beyond r=  1.1278
V l=3 = -2*Zval/r beyond r=  1.1138
All V_l potentials equal beyond r=  1.1278
This should be close to max(r_c) in ps generation
All pots = -2*Zval/r beyond r=  1.1278

VLOCAL1: 99.0% of the norm of Vloc inside     34.126 Ry
VLOCAL1: 99.9% of the norm of Vloc inside     77.774 Ry
atom: Maximum radius for 4*pi*r*r*local-pseudopot. charge    1.37759
atom: Maximum radius for r*vlocal+2*Zval:    1.18566
GHOST: No ghost state for L =  0
GHOST: No ghost state for L =  1
GHOST: No ghost state for L =  2
GHOST: No ghost state for L =  3

KBgen: Kleinman-Bylander projectors: 
   l= 0   rc=  1.294105   el= -1.742414   Ekb=  9.135903   kbcos=  0.326910
   l= 1   rc=  1.294105   el= -0.676589   Ekb= -8.124878   kbcos= -0.395047
   l= 2   rc=  1.448233   el=  0.002386   Ekb= -2.039267   kbcos= -0.003484
   l= 3   rc=  1.561052   el=  0.003508   Ekb= -0.799141   kbcos= -0.000344

KBgen: Total number of  Kleinman-Bylander projectors:   16
atom: -------------------------------------------------------------------------

atom: SANKEY-TYPE ORBITALS:
atom: Selected multiple-zeta basis: split     

SPLIT: Orbitals with angular momentum L= 0

SPLIT: Basis orbitals for state 2s

SPLIT: PAO cut-off radius determined from an
SPLIT: energy shift=  0.020000 Ry

   izeta = 1
                 lambda =    1.000000
                     rc =    3.305093
                 energy =   -1.723766
                kinetic =    1.614911
    potential(screened) =   -3.338677
       potential(ionic) =  -11.304675

   izeta = 2
                 rmatch =    2.510382
              splitnorm =    0.150000
                 energy =   -1.471299
                kinetic =    2.446434
    potential(screened) =   -3.917732
       potential(ionic) =  -12.476133

SPLIT: Orbitals with angular momentum L= 1

SPLIT: Basis orbitals for state 2p

SPLIT: PAO cut-off radius determined from an
SPLIT: energy shift=  0.020000 Ry

   izeta = 1
                 lambda =    1.000000
                     rc =    3.937239
                 energy =   -0.658841
                kinetic =    5.005986
    potential(screened) =   -5.664827
       potential(ionic) =  -13.452360

   izeta = 2
                 rmatch =    2.541963
              splitnorm =    0.150000
                 energy =   -0.367441
                kinetic =    7.530509
    potential(screened) =   -7.897949
       potential(ionic) =  -16.611953

POLgen: Perturbative polarization orbital with L=  2

POLgen: Polarization orbital for state 2p

   izeta = 1
                     rc =    3.937239
                 energy =    2.398520
                kinetic =    4.716729
    potential(screened) =   -2.318209
       potential(ionic) =   -8.603170
atom: Total number of Sankey-type orbitals: 13

atm_pop: Valence configuration (for local Pseudopot. screening):
 2s( 2.00)                                                            
 2p( 4.00)                                                            
Vna: chval, zval:    6.00000   6.00000

Vna:  Cut-off radius for the neutral-atom potential:   3.937239

atom: _________________________________________________________________________

<basis_specs>
===============================================================================
H                    Z=   1    Mass=  1.0100        Charge= 0.17977+309
Lmxo=0 Lmxkb= 2    BasisType=split      Semic=F
L=0  Nsemic=0  Cnfigmx=1
          i=1  nzeta=2  polorb=1  (1s)
            splnorm:   0.15000    
               vcte:    0.0000    
               rinn:    0.0000    
               qcoe:    0.0000    
               qyuk:    0.0000    
               qwid:   0.10000E-01
                rcs:    0.0000      0.0000    
            lambdas:    1.0000      1.0000    
-------------------------------------------------------------------------------
L=0  Nkbl=1  erefs: 0.17977+309
L=1  Nkbl=1  erefs: 0.17977+309
L=2  Nkbl=1  erefs: 0.17977+309
===============================================================================
</basis_specs>

atom: Called for H                     (Z =   1)

read_vps: Pseudopotential generation method:
read_vps: ATM3      Troullier-Martins                       
Valence charge for ps generation:    1.00000

xc_check: Exchange-correlation functional:
xc_check: Ceperley-Alder
V l=0 = -2*Zval/r beyond r=  1.2343
V l=1 = -2*Zval/r beyond r=  1.2189
V l=2 = -2*Zval/r beyond r=  1.2189
All V_l potentials equal beyond r=  1.2343
This should be close to max(r_c) in ps generation
All pots = -2*Zval/r beyond r=  1.2343

VLOCAL1: 99.0% of the norm of Vloc inside     28.493 Ry
VLOCAL1: 99.9% of the norm of Vloc inside     64.935 Ry
atom: Maximum radius for 4*pi*r*r*local-pseudopot. charge    1.45251
atom: Maximum radius for r*vlocal+2*Zval:    1.21892
GHOST: No ghost state for L =  0
GHOST: No ghost state for L =  1
GHOST: No ghost state for L =  2

KBgen: Kleinman-Bylander projectors: 
   l= 0   rc=  1.364359   el= -0.467325   Ekb= -2.005361   kbcos= -0.336422
   l= 1   rc=  1.434438   el=  0.001430   Ekb= -0.501708   kbcos= -0.021697
   l= 2   rc=  1.470814   el=  0.002365   Ekb= -0.190555   kbcos= -0.002281

KBgen: Total number of  Kleinman-Bylander projectors:    9
atom: -------------------------------------------------------------------------

atom: SANKEY-TYPE ORBITALS:
atom: Selected multiple-zeta basis: split     

SPLIT: Orbitals with angular momentum L= 0

SPLIT: Basis orbitals for state 1s

SPLIT: PAO cut-off radius determined from an
SPLIT: energy shift=  0.020000 Ry

   izeta = 1
                 lambda =    1.000000
                     rc =    4.828263
                 energy =   -0.449375
                kinetic =    0.929372
    potential(screened) =   -1.378747
       potential(ionic) =   -1.915047

   izeta = 2
                 rmatch =    3.854947
              splitnorm =    0.150000
                 energy =   -0.336153
                kinetic =    1.505294
    potential(screened) =   -1.841447
       potential(ionic) =   -2.413582

POLgen: Perturbative polarization orbital with L=  1

POLgen: Polarization orbital for state 1s

   izeta = 1
                     rc =    4.828263
                 energy =    0.706972
                kinetic =    1.396397
    potential(screened) =   -0.689424
       potential(ionic) =   -1.169792
atom: Total number of Sankey-type orbitals:  5

atm_pop: Valence configuration (for local Pseudopot. screening):
 1s( 1.00)                                                            
Vna: chval, zval:    1.00000   1.00000

Vna:  Cut-off radius for the neutral-atom potential:   4.828263

atom: _________________________________________________________________________

prinput: Basis input ----------------------------------------------------------

PAO.BasisType split     

%block ChemicalSpeciesLabel
    1    8 O                       # Species index, atomic number, species label
    2    1 H                       # Species index, atomic number, species label
%endblock ChemicalSpeciesLabel

%block PAO.Basis                 # Define Basis set
O                     2                    # Species label, number of l-shells
 n=2   0   2                         # n, l, Nzeta 
   3.305      2.510   
   1.000      1.000   
 n=2   1   2 P   1                   # n, l, Nzeta, Polarization, NzetaPol
   3.937      2.542   
   1.000      1.000   
H                     1                    # Species label, number of l-shells
 n=1   0   2 P   1                   # n, l, Nzeta, Polarization, NzetaPol
   4.828      3.855   
   1.000      1.000   
%endblock PAO.Basis

prinput: ----------------------------------------------------------------------

Dumping basis to NetCDF file O.ion.nc
Dumping basis to NetCDF file H.ion.nc
coor:   Atomic-coordinates input format  =     Cartesian coordinates
coor:                                          (in Angstroms)

siesta: Atomic coordinates (Bohr) and species
siesta:      0.00000   0.00000   0.00000  1        1
siesta:      1.43052   1.10738   0.00000  2        2
siesta:     -1.43052   1.10738   0.00000  2        3

siesta: Automatic unit cell vectors (Ang):
siesta:    7.286412    0.000000    0.000000
siesta:    0.000000    5.746952    0.000000
siesta:    0.000000    0.000000    5.621012

siesta: System type = molecule  

initatomlists: Number of atoms, orbitals, and projectors:      3    23    34

siesta: ******************** Simulation parameters ****************************
siesta:
siesta: The following are some of the parameters of the simulation.
siesta: A complete list of the parameters used, including default values,
siesta: can be found in file out.fdf
siesta:
redata: Spin configuration                          = none
redata: Number of spin components                   = 1
redata: Time-Reversal Symmetry                      = T
redata: Spin spiral                                 = F
redata: Long output                                 =   F
redata: Number of Atomic Species                    =        2
redata: Charge density info will appear in .RHO file
redata: Write Mulliken Pop.                         = NO
redata: Matel table size (NRTAB)                    =     1024
redata: Mesh Cutoff                                 =    50.0000 Ry
redata: Net charge of the system                    =     0.0000 |e|
redata: Min. number of SCF Iter                     =        0
redata: Max. number of SCF Iter                     =     1000
redata: SCF convergence failure will abort job
redata: SCF mix quantity                            = Hamiltonian
redata: Mix DM or H after convergence               =   F
redata: Recompute H after scf cycle                 =   F
redata: Mix DM in first SCF step                    =   T
redata: Write Pulay info on disk                    =   F
redata: New DM Occupancy tolerance                  = 0.000000000001
redata: No kicks to SCF
redata: DM Mixing Weight for Kicks                  =     0.5000
redata: Require Harris convergence for SCF          =   F
redata: Harris energy tolerance for SCF             =     0.000100 eV
redata: Require DM convergence for SCF              =   T
redata: DM tolerance for SCF                        =     0.000100
redata: Require EDM convergence for SCF             =   F
redata: EDM tolerance for SCF                       =     0.001000 eV
redata: Require H convergence for SCF               =   T
redata: Hamiltonian tolerance for SCF               =     0.001000 eV
redata: Require (free) Energy convergence for SCF   =   F
redata: (free) Energy tolerance for SCF             =     0.000100 eV
redata: Using Saved Data (generic)                  =   F
redata: Use continuation files for DM               =   F
redata: Neglect nonoverlap interactions             =   F
redata: Method of Calculation                       = Order-N
redata: Fix the spin of the system                  =   F
redata: Maximum number of iterations                =     1000
redata: Relative tolerance                          =     0.0000
redata: Eta (Fermi level parameter)                 =     0.0000 eV
redata: Radius of LWFs                              =     5.0272 Ang
redata: Use continuation files for LWF              =   F
redata: Method to build LWFs                        = kim          
redata: Dynamics option                             = Single-point calculation
mix.SCF: Pulay mixing                            = Pulay
mix.SCF:    Variant                              = stable
mix.SCF:    History steps                        = 2
mix.SCF:    Linear mixing weight                 =     0.250000
mix.SCF:    Mixing weight                        =     0.250000
mix.SCF:    SVD condition                        = 0.1000E-07
redata: Save all siesta data in one NC              =   F
redata: ***********************************************************************

%block SCF.Mixers
  Pulay
%endblock SCF.Mixers

%block SCF.Mixer.Pulay
  # Mixing method
  method pulay
  variant stable

  # Mixing options
  weight 0.2500
  weight.linear 0.2500
  history 2
%endblock SCF.Mixer.Pulay

DM_history_depth set to one: no extrapolation allowed by default for geometry relaxation
Size of DM history Fstack: 1
Total number of electrons:     8.000000
Total ionic charge:     8.000000

* ProcessorY, Blocksize:    2   3


* Orbital distribution balance (max,min):     3     2

 Kpoints in:            1 . Kpoints trimmed:            1

siesta: k-grid: Number of k-points =     1
siesta: k-grid: Cutoff (effective) =     2.811 Ang
siesta: k-grid: Supercell and displacements
siesta: k-grid:    1   0   0      0.000
siesta: k-grid:    0   1   0      0.000
siesta: k-grid:    0   0   1      0.000

diag: Algorithm                                     = D&C
diag: Parallel over k                               =   F
diag: Use parallel 2D distribution                  =   T
diag: Parallel block-size                           = 3
diag: Parallel distribution                         =     2 x     4
diag: Used triangular part                          = Lower
diag: Absolute tolerance                            =  0.100E-15
diag: Orthogonalization factor                      =  0.100E-05
diag: Memory factor                                 =  1.0000


ts: **************************************************************
ts: Save H and S matrices                           =    F
ts: Save DM and EDM matrices                        =    F
ts: Only save the overlap matrix S                  =    F
ts: **************************************************************

************************ Begin: TS CHECKS AND WARNINGS ************************
************************ End: TS CHECKS AND WARNINGS **************************


                     ====================================
                        Single-point calculation
                     ====================================

outcell: Unit cell vectors (Ang):
        7.286412    0.000000    0.000000
        0.000000    5.746952    0.000000
        0.000000    0.000000    5.621012

outcell: Cell vector modules (Ang)   :    7.286412    5.746952    5.621012
outcell: Cell angles (23,13,12) (deg):     90.0000     90.0000     90.0000
outcell: Cell volume (Ang**3)        :    235.3780
<dSpData1D:S at geom step 0
  <sparsity:sparsity for geom step 0
    nrows_g=23 nrows=3 sparsity=.1304 nnzs=69, refcount: 7>
  <dData1D:(new from dSpData1D) n=69, refcount: 1>
refcount: 1>
new_DM -- step:     1
Initializing Density Matrix...
DM filled with atomic data:
<dSpData2D:DM initialized from atoms
  <sparsity:sparsity for geom step 0
    nrows_g=23 nrows=3 sparsity=.1304 nnzs=69, refcount: 8>
  <dData2D:DM n=69 m=1, refcount: 1>
refcount: 1>
No. of atoms with KB's overlaping orbs in proc 0. Max # of overlaps:       3      23
New grid distribution:   1
           1       1:   16    1:    8    1:    3
           2       1:   16    1:    8    4:    6
           3       1:   16    1:    8    7:    9
           4       1:   16    1:    8   10:   12
           5       1:   16    9:   15    1:    3
           6       1:   16    9:   15    4:    6
           7       1:   16    9:   15    7:    9
           8       1:   16    9:   15   10:   12

InitMesh: MESH =    32 x    30 x    24 =       23040
InitMesh: (bp) =    16 x    15 x    12 =        2880
InitMesh: Mesh cutoff (required, used) =    50.000    50.384 Ry
ExtMesh (bp) on 0 =    40 x    36 x    27 =       38880
New grid distribution:   2
           1       5:   16    5:   15    1:    4
           2       5:   16    1:    4    1:    4
           3       5:   16    1:    4    5:   12
           4       1:    4    1:    4    5:   12
           5       1:    4    5:   15    1:    4
           6       1:    4    1:    4    1:    4
           7       5:   16    5:   15    5:   12
           8       1:    4    5:   15    5:   12
New grid distribution:   3
           1       1:    7    6:   15    1:    4
           2       8:   16    1:    5    1:    5
           3       1:    7    6:   15    5:   12
           4       8:   16    1:    5    6:   12
           5       8:   16    6:   15    1:    4
           6       1:    7    1:    5    6:   12
           7       8:   16    6:   15    5:   12
           8       1:    7    1:    5    1:    5
Setting up quadratic distribution...
ExtMesh (bp) on 0 =    36 x    39 x    28 =       39312
PhiOnMesh: Number of (b)points on node 0 =                  528
PhiOnMesh: nlist on node 0 =                 2325

ordern: enum =      8.0000

ordern: ioptlwf =  1
cgwf: iter =    1      grad =        -315.350989      Eb(Ry) =      -1.263074
cgwf: iter =    2      grad =         -18.585030      Eb(Ry) =      -2.966263
cgwf: iter =    3      grad =          -6.814965      Eb(Ry) =      -3.403826
cgwf: iter =    4      grad =          -5.093816      Eb(Ry) =      -3.585045
cgwf: iter =    5      grad =          -6.675783      Eb(Ry) =      -3.741383
cgwf: iter =    6      grad =          -6.253411      Eb(Ry) =      -4.063478
cgwf: iter =    7      grad =          -4.288328      Eb(Ry) =      -4.204659
cgwf: iter =    8      grad =          -2.593234      Eb(Ry) =      -4.284125
cgwf: iter =    9      grad =          -0.914801      Eb(Ry) =      -4.341176
cgwf: iter =   10      grad =          -0.678374      Eb(Ry) =      -4.367665
cgwf: iter =   11      grad =          -0.484968      Eb(Ry) =      -4.384676
cgwf: iter =   12      grad =          -0.226386      Eb(Ry) =      -4.394204
cgwf: iter =   13      grad =          -0.195138      Eb(Ry) =      -4.403374
cgwf: iter =   14      grad =          -0.215462      Eb(Ry) =      -4.409665
cgwf: iter =   15      grad =          -0.208725      Eb(Ry) =      -4.415468
cgwf: iter =   16      grad =          -0.167100      Eb(Ry) =      -4.421415
cgwf: iter =   17      grad =          -0.245479      Eb(Ry) =      -4.430067
cgwf: iter =   18      grad =          -0.307202      Eb(Ry) =      -4.437084
cgwf: iter =   19      grad =          -0.381765      Eb(Ry) =      -4.447967
cgwf: iter =   20      grad =          -0.286798      Eb(Ry) =      -4.460740
cgwf: iter =   21      grad =          -0.281736      Eb(Ry) =      -4.471830
cgwf: iter =   22      grad =          -0.151680      Eb(Ry) =      -4.477405
cgwf: iter =   23      grad =          -0.080732      Eb(Ry) =      -4.480694
cgwf: iter =   24      grad =          -0.077466      Eb(Ry) =      -4.484673
cgwf: iter =   25      grad =          -0.086311      Eb(Ry) =      -4.487275
cgwf: iter =   26      grad =          -0.045908      Eb(Ry) =      -4.489071
cgwf: iter =   27      grad =          -0.025263      Eb(Ry) =      -4.490091
cgwf: iter =   28      grad =          -0.037807      Eb(Ry) =      -4.491719
cgwf: iter =   29      grad =          -0.041107      Eb(Ry) =      -4.492802
cgwf: iter =   30      grad =          -0.047494      Eb(Ry) =      -4.493995
cgwf: iter =   31      grad =          -0.032538      Eb(Ry) =      -4.495401
cgwf: iter =   32      grad =          -0.036673      Eb(Ry) =      -4.497143
cgwf: iter =   33      grad =          -0.022886      Eb(Ry) =      -4.498125
cgwf: iter =   34      grad =          -0.021316      Eb(Ry) =      -4.498591
cgwf: iter =   35      grad =          -0.016118      Eb(Ry) =      -4.499579
cgwf: iter =   36      grad =          -0.020503      Eb(Ry) =      -4.500290
cgwf: iter =   37      grad =          -0.014253      Eb(Ry) =      -4.501066
cgwf: iter =   38      grad =          -0.011956      Eb(Ry) =      -4.501354
cgwf: iter =   39      grad =          -0.009640      Eb(Ry) =      -4.501709
cgwf: iter =   40      grad =          -0.014110      Eb(Ry) =      -4.502180
cgwf: iter =   41      grad =          -0.010997      Eb(Ry) =      -4.502854
cgwf: iter =   42      grad =          -0.012547      Eb(Ry) =      -4.503184
cgwf: iter =   43      grad =          -0.012142      Eb(Ry) =      -4.503499
cgwf: iter =   44      grad =          -0.006251      Eb(Ry) =      -4.503857
cgwf: iter =   45      grad =          -0.012422      Eb(Ry) =      -4.504306
cgwf: iter =   46      grad =          -0.021134      Eb(Ry) =      -4.504853
cgwf: iter =   47      grad =          -0.013641      Eb(Ry) =      -4.505310
cgwf: iter =   48      grad =          -0.007398      Eb(Ry) =      -4.505663
cgwf: iter =   49      grad =          -0.005109      Eb(Ry) =      -4.505988
cgwf: iter =   50      grad =          -0.003427      Eb(Ry) =      -4.506131
cgwf: iter =   51      grad =          -0.003069      Eb(Ry) =      -4.506211
cgwf: iter =   52      grad =          -0.002062      Eb(Ry) =      -4.506288
cgwf: iter =   53      grad =          -0.002195      Eb(Ry) =      -4.506388
cgwf: iter =   54      grad =          -0.001658      Eb(Ry) =      -4.506468
cgwf: iter =   55      grad =          -0.002320      Eb(Ry) =      -4.506525
cgwf: iter =   56      grad =          -0.001055      Eb(Ry) =      -4.506568
cgwf: iter =   57      grad =          -0.002103      Eb(Ry) =      -4.506640
cgwf: iter =   58      grad =          -0.001793      Eb(Ry) =      -4.506723
cgwf: iter =   59      grad =          -0.002622      Eb(Ry) =      -4.506791
cgwf: iter =   60      grad =          -0.001133      Eb(Ry) =      -4.506839
cgwf: iter =   61      grad =          -0.001013      Eb(Ry) =      -4.506877
cgwf: iter =   62      grad =          -0.000653      Eb(Ry) =      -4.506920
cgwf: iter =   63      grad =          -0.000751      Eb(Ry) =      -4.506942
cgwf: iter =   64      grad =          -0.000712      Eb(Ry) =      -4.506961
cgwf: iter =   65      grad =          -0.000372      Eb(Ry) =      -4.506978
cgwf: iter =   66      grad =          -0.000216      Eb(Ry) =      -4.506995
cgwf: iter =   67      grad =          -0.000318      Eb(Ry) =      -4.507004
cgwf: iter =   68      grad =          -0.000390      Eb(Ry) =      -4.507013
cgwf: iter =   69      grad =          -0.000338      Eb(Ry) =      -4.507024
cgwf: iter =   70      grad =          -0.000444      Eb(Ry) =      -4.507044
cgwf: iter =   71      grad =          -0.000412      Eb(Ry) =      -4.507061
cgwf: iter =   72      grad =          -0.000448      Eb(Ry) =      -4.507074
cgwf: iter =   73      grad =          -0.000283      Eb(Ry) =      -4.507083
cgwf: iter =   74      grad =          -0.000330      Eb(Ry) =      -4.507095
cgwf: iter =   75      grad =          -0.000202      Eb(Ry) =      -4.507107
cgwf: iter =   76      grad =          -0.000146      Eb(Ry) =      -4.507114
cgwf: iter =   77      grad =          -0.000110      Eb(Ry) =      -4.507117
cgwf: iter =   78      grad =          -0.000075      Eb(Ry) =      -4.507121
cgwf: iter =   79      grad =          -0.000062      Eb(Ry) =      -4.507124
cgwf: iter =   80      grad =          -0.000074      Eb(Ry) =      -4.507127
cgwf: iter =   81      grad =          -0.000049      Eb(Ry) =      -4.507128
cgwf: iter =   82      grad =          -0.000037      Eb(Ry) =      -4.507129
cgwf: iter =   83      grad =          -0.000033      Eb(Ry) =      -4.507131
cgwf: iter =   84      grad =          -0.000047      Eb(Ry) =      -4.507133
cgwf: iter =   85      grad =          -0.000047      Eb(Ry) =      -4.507134
cgwf: iter =   86      grad =          -0.000065      Eb(Ry) =      -4.507135
cgwf: iter =   87      grad =          -0.000032      Eb(Ry) =      -4.507138
cgwf: iter =   88      grad =          -0.000052      Eb(Ry) =      -4.507140
cgwf: iter =   89      grad =          -0.000050      Eb(Ry) =      -4.507141
cgwf: iter =   90      grad =          -0.000027      Eb(Ry) =      -4.507142
cgwf: iter =   91      grad =          -0.000021      Eb(Ry) =      -4.507143
cgwf: iter =   92      grad =          -0.000017      Eb(Ry) =      -4.507144
cgwf: iter =   93      grad =          -0.000011      Eb(Ry) =      -4.507145
cgwf: iter =   94      grad =          -0.000006      Eb(Ry) =      -4.507145
cgwf: iter =   95      grad =          -0.000006      Eb(Ry) =      -4.507145
cgwf: iter =   96      grad =          -0.000005      Eb(Ry) =      -4.507145
cgwf: iter =   97      grad =          -0.000011      Eb(Ry) =      -4.507146
cgwf: iter =   98      grad =          -0.000012      Eb(Ry) =      -4.507146
cgwf: iter =   99      grad =          -0.000009      Eb(Ry) =      -4.507146
cgwf: iter =  100      grad =          -0.000006      Eb(Ry) =      -4.507147
cgwf: iter =  101      grad =          -0.000007      Eb(Ry) =      -4.507147
cgwf: iter =  102      grad =          -0.000009      Eb(Ry) =      -4.507147
cgwf: iter =  103      grad =          -0.000007      Eb(Ry) =      -4.507147
cgwf: iter =  104      grad =          -0.000004      Eb(Ry) =      -4.507148
cgwf: iter =  105      grad =          -0.000003      Eb(Ry) =      -4.507148
cgwf: iter =  106      grad =          -0.000003      Eb(Ry) =      -4.507148
cgwf: iter =  107      grad =          -0.000003      Eb(Ry) =      -4.507148
cgwf: iter =  108      grad =          -0.000002      Eb(Ry) =      -4.507148
cgwf: iter =  109      grad =          -0.000003      Eb(Ry) =      -4.507148
cgwf: iter =  110      grad =          -0.000004      Eb(Ry) =      -4.507148
cgwf: iter =  111      grad =          -0.000005      Eb(Ry) =      -4.507148
cgwf: iter =  112      grad =          -0.000002      Eb(Ry) =      -4.507148
cgwf: iter =  113      grad =          -0.000003      Eb(Ry) =      -4.507149
cgwf: iter =  114      grad =          -0.000003      Eb(Ry) =      -4.507149
cgwf: iter =  115      grad =          -0.000004      Eb(Ry) =      -4.507149
cgwf: iter =  116      grad =          -0.000001      Eb(Ry) =      -4.507149

cgwf:  CG tolerance reached

denmat: qtot (before DM normalization) =       8.0000
ordern: qtot (after  DM normalization) =       8.0000

siesta: Program's energy decomposition (eV):
siesta: Ebs     =       -86.538636
siesta: Eions   =       815.854478
siesta: Ena     =       175.155695
siesta: Ekin    =       370.734199
siesta: Enl     =       -67.177314
siesta: Eso     =         0.000000
siesta: Edftu   =         0.000000
siesta: DEna    =       -13.595790
siesta: DUscf   =         1.704926
siesta: DUext   =         0.000000
siesta: Exc     =      -116.210758
siesta: eta*DQ  =         0.000000
siesta: Emadel  =         0.000000
siesta: Emeta   =         0.000000
siesta: Emolmec =         0.000000
siesta: Ekinion =         0.000000
siesta: Eharris =      -467.645245
siesta: Etot    =      -465.243521
siesta: FreeEng =      -465.243521

siesta: iscf =    1
Eharris(eV) =       -467.6452  E_KS(eV) =       -465.2435  dDmax =   1.437841

timer: Routine,Calls,Time,% = IterSCF        1       0.038   2.83

ordern: enum =      8.0000
cgwf: iter =    1      grad =          -0.024958      Eb(Ry) =      -4.175415
cgwf: iter =    2      grad =          -0.043339      Eb(Ry) =      -4.177890
cgwf: iter =    3      grad =          -0.006053      Eb(Ry) =      -4.178363
cgwf: iter =    4      grad =          -0.004876      Eb(Ry) =      -4.178615
cgwf: iter =    5      grad =          -0.001167      Eb(Ry) =      -4.178774
cgwf: iter =    6      grad =          -0.000276      Eb(Ry) =      -4.178811
cgwf: iter =    7      grad =          -0.000287      Eb(Ry) =      -4.178826
cgwf: iter =    8      grad =          -0.000203      Eb(Ry) =      -4.178831
cgwf: iter =    9      grad =          -0.000128      Eb(Ry) =      -4.178836
cgwf: iter =   10      grad =          -0.000141      Eb(Ry) =      -4.178838
cgwf: iter =   11      grad =          -0.000132      Eb(Ry) =      -4.178844
cgwf: iter =   12      grad =          -0.000232      Eb(Ry) =      -4.178849
cgwf: iter =   13      grad =          -0.000376      Eb(Ry) =      -4.178860
cgwf: iter =   14      grad =          -0.000394      Eb(Ry) =      -4.178871
cgwf: iter =   15      grad =          -0.000245      Eb(Ry) =      -4.178884
cgwf: iter =   16      grad =          -0.000134      Eb(Ry) =      -4.178889
cgwf: iter =   17      grad =          -0.000090      Eb(Ry) =      -4.178891
cgwf: iter =   18      grad =          -0.000073      Eb(Ry) =      -4.178900
cgwf: iter =   19      grad =          -0.000041      Eb(Ry) =      -4.178902
cgwf: iter =   20      grad =          -0.000027      Eb(Ry) =      -4.178904
cgwf: iter =   21      grad =          -0.000113      Eb(Ry) =      -4.178906
cgwf: iter =   22      grad =          -0.000104      Eb(Ry) =      -4.178909
cgwf: iter =   23      grad =          -0.000045      Eb(Ry) =      -4.178912
cgwf: iter =   24      grad =          -0.000037      Eb(Ry) =      -4.178914
cgwf: iter =   25      grad =          -0.000148      Eb(Ry) =      -4.178918
cgwf: iter =   26      grad =          -0.000040      Eb(Ry) =      -4.178920
cgwf: iter =   27      grad =          -0.000030      Eb(Ry) =      -4.178924
cgwf: iter =   28      grad =          -0.000020      Eb(Ry) =      -4.178924
cgwf: iter =   29      grad =          -0.000034      Eb(Ry) =      -4.178925
cgwf: iter =   30      grad =          -0.000027      Eb(Ry) =      -4.178926
cgwf: iter =   31      grad =          -0.000016      Eb(Ry) =      -4.178927
cgwf: iter =   32      grad =          -0.000011      Eb(Ry) =      -4.178928
cgwf: iter =   33      grad =          -0.000011      Eb(Ry) =      -4.178929
cgwf: iter =   34      grad =          -0.000007      Eb(Ry) =      -4.178929
cgwf: iter =   35      grad =          -0.000005      Eb(Ry) =      -4.178929
cgwf: iter =   36      grad =          -0.000006      Eb(Ry) =      -4.178930
cgwf: iter =   37      grad =          -0.000008      Eb(Ry) =      -4.178930
cgwf: iter =   38      grad =          -0.000011      Eb(Ry) =      -4.178930
cgwf: iter =   39      grad =          -0.000008      Eb(Ry) =      -4.178930
cgwf: iter =   40      grad =          -0.000019      Eb(Ry) =      -4.178931
cgwf: iter =   41      grad =          -0.000037      Eb(Ry) =      -4.178933
cgwf: iter =   42      grad =          -0.000007      Eb(Ry) =      -4.178934
cgwf: iter =   43      grad =          -0.000002      Eb(Ry) =      -4.178935
cgwf: iter =   44      grad =          -0.000002      Eb(Ry) =      -4.178935
cgwf: iter =   45      grad =          -0.000003      Eb(Ry) =      -4.178935

cgwf:  CG tolerance reached

denmat: qtot (before DM normalization) =       8.0000
ordern: qtot (after  DM normalization) =       8.0000

siesta: iscf =    2
Eharris(eV) =       -466.1226  E_KS(eV) =       -465.7620  dDmax =   0.047228


ordern: enum =      8.0000
cgwf: iter =    1      grad =          -0.009723      Eb(Ry) =      -3.939618
cgwf: iter =    2      grad =          -0.009934      Eb(Ry) =      -3.940623
cgwf: iter =    3      grad =          -0.002332      Eb(Ry) =      -3.940738
cgwf: iter =    4      grad =          -0.001748      Eb(Ry) =      -3.940857
cgwf: iter =    5      grad =          -0.000362      Eb(Ry) =      -3.940908
cgwf: iter =    6      grad =          -0.000093      Eb(Ry) =      -3.940920
cgwf: iter =    7      grad =          -0.000045      Eb(Ry) =      -3.940925
cgwf: iter =    8      grad =          -0.000069      Eb(Ry) =      -3.940927
cgwf: iter =    9      grad =          -0.000027      Eb(Ry) =      -3.940930
cgwf: iter =   10      grad =          -0.000041      Eb(Ry) =      -3.940933
cgwf: iter =   11      grad =          -0.000035      Eb(Ry) =      -3.940934
cgwf: iter =   12      grad =          -0.000084      Eb(Ry) =      -3.940939
cgwf: iter =   13      grad =          -0.000034      Eb(Ry) =      -3.940941
cgwf: iter =   14      grad =          -0.000030      Eb(Ry) =      -3.940941
cgwf: iter =   15      grad =          -0.000012      Eb(Ry) =      -3.940943
cgwf: iter =   16      grad =          -0.000026      Eb(Ry) =      -3.940944
cgwf: iter =   17      grad =          -0.000010      Eb(Ry) =      -3.940945
cgwf: iter =   18      grad =          -0.000022      Eb(Ry) =      -3.940946
cgwf: iter =   19      grad =          -0.000015      Eb(Ry) =      -3.940946
cgwf: iter =   20      grad =          -0.000007      Eb(Ry) =      -3.940947
cgwf: iter =   21      grad =          -0.000017      Eb(Ry) =      -3.940948
cgwf: iter =   22      grad =          -0.000008      Eb(Ry) =      -3.940949
cgwf: iter =   23      grad =          -0.000004      Eb(Ry) =      -3.940949
cgwf: iter =   24      grad =          -0.000008      Eb(Ry) =      -3.940949
cgwf: iter =   25      grad =          -0.000002      Eb(Ry) =      -3.940949
cgwf: iter =   26      grad =          -0.000006      Eb(Ry) =      -3.940950
cgwf: iter =   27      grad =          -0.000002      Eb(Ry) =      -3.940950
cgwf: iter =   28      grad =          -0.000001      Eb(Ry) =      -3.940950
cgwf: iter =   29      grad =          -0.000003      Eb(Ry) =      -3.940950
cgwf: iter =   30      grad =          -0.000002      Eb(Ry) =      -3.940950
cgwf: iter =   31      grad =          -0.000004      Eb(Ry) =      -3.940950
cgwf: iter =   32      grad =          -0.000001      Eb(Ry) =      -3.940951
cgwf: iter =   33      grad =          -0.000003      Eb(Ry) =      -3.940951
cgwf: iter =   34      grad =          -0.000002      Eb(Ry) =      -3.940951

cgwf:  CG tolerance reached

denmat: qtot (before DM normalization) =       8.0000
ordern: qtot (after  DM normalization) =       8.0000

siesta: iscf =    3
Eharris(eV) =       -465.8480  E_KS(eV) =       -465.8349  dDmax =   0.024875


ordern: enum =      8.0000
cgwf: iter =    1      grad =          -0.000091      Eb(Ry) =      -3.915115
cgwf: iter =    2      grad =          -0.000196      Eb(Ry) =      -3.915122
cgwf: iter =    3      grad =          -0.000027      Eb(Ry) =      -3.915124
cgwf: iter =    4      grad =          -0.000027      Eb(Ry) =      -3.915126
cgwf: iter =    5      grad =          -0.000012      Eb(Ry) =      -3.915127
cgwf: iter =    6      grad =          -0.000007      Eb(Ry) =      -3.915127
cgwf: iter =    7      grad =          -0.000005      Eb(Ry) =      -3.915128
cgwf: iter =    8      grad =          -0.000004      Eb(Ry) =      -3.915128
cgwf: iter =    9      grad =          -0.000003      Eb(Ry) =      -3.915128
cgwf: iter =   10      grad =          -0.000002      Eb(Ry) =      -3.915128
cgwf: iter =   11      grad =          -0.000003      Eb(Ry) =      -3.915128
cgwf: iter =   12      grad =          -0.000001      Eb(Ry) =      -3.915129
cgwf: iter =   13      grad =          -0.000003      Eb(Ry) =      -3.915129
cgwf: iter =   14      grad =          -0.000002      Eb(Ry) =      -3.915129
cgwf: iter =   15      grad =          -0.000004      Eb(Ry) =      -3.915129
cgwf: iter =   16      grad =          -0.000003      Eb(Ry) =      -3.915129
cgwf: iter =   17      grad =          -0.000002      Eb(Ry) =      -3.915129
cgwf: iter =   18      grad =          -0.000002      Eb(Ry) =      -3.915129

cgwf:  CG tolerance reached

denmat: qtot (before DM normalization) =       8.0000
ordern: qtot (after  DM normalization) =       8.0000

siesta: iscf =    4
Eharris(eV) =       -465.8397  E_KS(eV) =       -465.8374  dDmax =   0.009455


ordern: enum =      8.0000
cgwf: iter =    1      grad =          -0.000420      Eb(Ry) =      -3.845416
cgwf: iter =    2      grad =          -0.000964      Eb(Ry) =      -3.845444
cgwf: iter =    3      grad =          -0.000095      Eb(Ry) =      -3.845455
cgwf: iter =    4      grad =          -0.000401      Eb(Ry) =      -3.845456
cgwf: iter =    5      grad =          -0.000175      Eb(Ry) =      -3.845461
cgwf: iter =    6      grad =          -0.000037      Eb(Ry) =      -3.845469
cgwf: iter =    7      grad =          -0.000044      Eb(Ry) =      -3.845471
cgwf: iter =    8      grad =          -0.000042      Eb(Ry) =      -3.845474
cgwf: iter =    9      grad =          -0.000039      Eb(Ry) =      -3.845475
cgwf: iter =   10      grad =          -0.000037      Eb(Ry) =      -3.845476
cgwf: iter =   11      grad =          -0.000008      Eb(Ry) =      -3.845478
cgwf: iter =   12      grad =          -0.000010      Eb(Ry) =      -3.845479
cgwf: iter =   13      grad =          -0.000007      Eb(Ry) =      -3.845479
cgwf: iter =   14      grad =          -0.000005      Eb(Ry) =      -3.845479
cgwf: iter =   15      grad =          -0.000011      Eb(Ry) =      -3.845480
cgwf: iter =   16      grad =          -0.000012      Eb(Ry) =      -3.845480
cgwf: iter =   17      grad =          -0.000012      Eb(Ry) =      -3.845481
cgwf: iter =   18      grad =          -0.000011      Eb(Ry) =      -3.845481
cgwf: iter =   19      grad =          -0.000010      Eb(Ry) =      -3.845482
cgwf: iter =   20      grad =          -0.000012      Eb(Ry) =      -3.845482
cgwf: iter =   21      grad =          -0.000006      Eb(Ry) =      -3.845482
cgwf: iter =   22      grad =          -0.000005      Eb(Ry) =      -3.845483
cgwf: iter =   23      grad =          -0.000005      Eb(Ry) =      -3.845483
cgwf: iter =   24      grad =          -0.000006      Eb(Ry) =      -3.845483
cgwf: iter =   25      grad =          -0.000002      Eb(Ry) =      -3.845483
cgwf: iter =   26      grad =          -0.000002      Eb(Ry) =      -3.845483
cgwf: iter =   27      grad =          -0.000001      Eb(Ry) =      -3.845483
cgwf: iter =   28      grad =          -0.000003      Eb(Ry) =      -3.845483
cgwf: iter =   29      grad =          -0.000005      Eb(Ry) =      -3.845483
cgwf: iter =   30      grad =          -0.000004      Eb(Ry) =      -3.845484
cgwf: iter =   31      grad =          -0.000003      Eb(Ry) =      -3.845484
cgwf: iter =   32      grad =          -0.000001      Eb(Ry) =      -3.845484
cgwf: iter =   33      grad =          -0.000002      Eb(Ry) =      -3.845484
cgwf: iter =   34      grad =          -0.000003      Eb(Ry) =      -3.845484
cgwf: iter =   35      grad =          -0.000004      Eb(Ry) =      -3.845485
cgwf: iter =   36      grad =          -0.000003      Eb(Ry) =      -3.845485
cgwf: iter =   37      grad =          -0.000001      Eb(Ry) =      -3.845485

cgwf:  CG tolerance reached

denmat: qtot (before DM normalization) =       8.0000
ordern: qtot (after  DM normalization) =       8.0000

siesta: iscf =    5
Eharris(eV) =       -465.8395  E_KS(eV) =       -465.8389  dDmax =   0.027086


ordern: enum =      8.0000
cgwf: iter =    1      grad =          -0.000007      Eb(Ry) =      -3.843772
cgwf: iter =    2      grad =          -0.000018      Eb(Ry) =      -3.843773
cgwf: iter =    3      grad =          -0.000002      Eb(Ry) =      -3.843773
cgwf: iter =    4      grad =          -0.000001      Eb(Ry) =      -3.843773
cgwf: iter =    5      grad =          -0.000000      Eb(Ry) =      -3.843773

cgwf:  CG tolerance reached

denmat: qtot (before DM normalization) =       8.0000
ordern: qtot (after  DM normalization) =       8.0000

siesta: iscf =    6
Eharris(eV) =       -465.8392  E_KS(eV) =       -465.8391  dDmax =   0.000421


ordern: enum =      8.0000
cgwf: iter =    1      grad =          -0.000002      Eb(Ry) =      -3.844312
cgwf: iter =    2      grad =          -0.000003      Eb(Ry) =      -3.844312
cgwf: iter =    3      grad =          -0.000001      Eb(Ry) =      -3.844312

cgwf:  CG tolerance reached

denmat: qtot (before DM normalization) =       8.0000
ordern: qtot (after  DM normalization) =       8.0000

siesta: iscf =    7
Eharris(eV) =       -465.8392  E_KS(eV) =       -465.8391  dDmax =   0.000225


ordern: enum =      8.0000
cgwf: iter =    1      grad =          -0.000002      Eb(Ry) =      -3.845578
cgwf: iter =    2      grad =          -0.000004      Eb(Ry) =      -3.845578
cgwf: iter =    3      grad =          -0.000000      Eb(Ry) =      -3.845578
cgwf: iter =    4      grad =          -0.000001      Eb(Ry) =      -3.845578

cgwf:  CG tolerance reached

denmat: qtot (before DM normalization) =       8.0000
ordern: qtot (after  DM normalization) =       8.0000

siesta: iscf =    8
Eharris(eV) =       -465.8391  E_KS(eV) =       -465.8391  dDmax =   0.000325


ordern: enum =      8.0000
cgwf: iter =    1      grad =          -0.000001      Eb(Ry) =      -3.845468

cgwf:  CG tolerance reached

denmat: qtot (before DM normalization) =       8.0000
ordern: qtot (after  DM normalization) =       8.0000

siesta: iscf =    9
Eharris(eV) =       -465.8391  E_KS(eV) =       -465.8391  dDmax =   0.000022


ordern: enum =      8.0000
cgwf: iter =    1      grad =          -0.000001      Eb(Ry) =      -3.846760

cgwf:  CG tolerance reached

denmat: qtot (before DM normalization) =       8.0000
ordern: qtot (after  DM normalization) =       8.0000

siesta: iscf =   10
Eharris(eV) =       -465.8391  E_KS(eV) =       -465.8391  dDmax =   0.000027


ordern: enum =      8.0000
cgwf: iter =    1      grad =          -0.000003      Eb(Ry) =      -3.849493
cgwf: iter =    2      grad =          -0.000006      Eb(Ry) =      -3.849494
cgwf: iter =    3      grad =          -0.000000      Eb(Ry) =      -3.849494

cgwf:  CG tolerance reached

denmat: qtot (before DM normalization) =       8.0000
ordern: qtot (after  DM normalization) =       8.0000

siesta: iscf =   11
Eharris(eV) =       -465.8391  E_KS(eV) =       -465.8391  dDmax =   0.000333


ordern: enum =      8.0000
cgwf: iter =    1      grad =          -0.000001      Eb(Ry) =      -3.848890

cgwf:  CG tolerance reached

denmat: qtot (before DM normalization) =       8.0000
ordern: qtot (after  DM normalization) =       8.0000

siesta: iscf =   12
Eharris(eV) =       -465.8391  E_KS(eV) =       -465.8391  dDmax =   0.000069


ordern: enum =      8.0000
cgwf: iter =    1      grad =          -0.000001      Eb(Ry) =      -3.848664

cgwf:  CG tolerance reached

denmat: qtot (before DM normalization) =       8.0000
ordern: qtot (after  DM normalization) =       8.0000

siesta: iscf =   13
Eharris(eV) =       -465.8391  E_KS(eV) =       -465.8391  dDmax =   0.000033


ordern: enum =      8.0000
cgwf: iter =    1      grad =          -0.000001      Eb(Ry) =      -3.848709

cgwf:  CG tolerance reached

denmat: qtot (before DM normalization) =       8.0000
ordern: qtot (after  DM normalization) =       8.0000

siesta: iscf =   14
Eharris(eV) =       -465.8391  E_KS(eV) =       -465.8391  dDmax =   0.000018


ordern: enum =      8.0000
cgwf: iter =    1      grad =          -0.000000      Eb(Ry) =      -3.848802

cgwf:  CG tolerance reached

denmat: qtot (before DM normalization) =       8.0000
ordern: qtot (after  DM normalization) =       8.0000

siesta: iscf =   15
Eharris(eV) =       -465.8391  E_KS(eV) =       -465.8391  dDmax =   0.000014


SCF Convergence by DM+H criterion
max |DM_out - DM_in|         :     0.0000140833
max |H_out - H_in|      (eV) :     0.0007153330
SCF cycle converged after 15 iterations

Using DM_out to compute the final energy and forces
No. of atoms with KB's overlaping orbs in proc 0. Max # of overlaps:       3      23

siesta: E_KS(eV) =             -465.8391

siesta: E_KS - E_eggbox =      -465.8391

siesta: Atomic forces (eV/Ang):
----------------------------------------
   Tot   -0.000007    0.055230    0.000087
----------------------------------------
   Max    0.689562
   Res    0.378698    sqrt( Sum f_i^2 / 3N )
----------------------------------------
   Max    0.689562    constrained

Stress tensor Voigt[x,y,z,yz,xz,xy] (kbar):      -19.91       -3.50       22.45       -0.00        0.00       -0.00
(Free)E + p*V (eV/cell)     -465.7922
Target enthalpy (eV/cell)     -465.8391

siesta: Program's energy decomposition (eV):
siesta: Ebs     =      -104.736779
siesta: Eions   =       815.854478
siesta: Ena     =       175.155695
siesta: Ekin    =       350.809235
siesta: Enl     =       -61.968912
siesta: Eso     =         0.000000
siesta: Edftu   =         0.000000
siesta: DEna    =        -1.791718
siesta: DUscf   =         0.727220
siesta: DUext   =         0.000000
siesta: Exc     =      -112.916185
siesta: eta*DQ  =         0.000000
siesta: Emadel  =         0.000000
siesta: Emeta   =         0.000000
siesta: Emolmec =         0.000000
siesta: Ekinion =         0.000000
siesta: Eharris =      -465.839144
siesta: Etot    =      -465.839144
siesta: FreeEng =      -465.839144

siesta: Final energy (eV):
siesta:  Band Struct. =    -104.736779
siesta:       Kinetic =     350.809235
siesta:       Hartree =     382.627886
siesta:       Edftu   =       0.000000
siesta:       Eso     =       0.000000
siesta:    Ext. field =       0.000000
siesta:   Exch.-corr. =    -112.916185
siesta:  Ion-electron =   -1072.855579
siesta:       Ion-ion =     -13.504501
siesta:       Ekinion =       0.000000
siesta:         Total =    -465.839144
siesta:         Fermi =       0.000000

siesta: Atomic forces (eV/Ang):
siesta:      1   -0.000034   -0.456801    0.000042
siesta:      2    0.689562    0.256028    0.000023
siesta:      3   -0.689536    0.256003    0.000023
siesta: ----------------------------------------
siesta:    Tot   -0.000007    0.055230    0.000087

siesta: Stress tensor (static) (eV/Ang**3):
siesta:    -0.012426   -0.000000    0.000000
siesta:    -0.000000   -0.002181    0.000000
siesta:     0.000000   -0.000000    0.014010

siesta: Cell volume =        235.378012 Ang**3

siesta: Pressure (static):
siesta:                Solid            Molecule  Units
siesta:           0.00000217         -0.00001823  Ry/Bohr**3
siesta:           0.00019939         -0.00167341  eV/Ang**3
siesta:           0.31946535         -2.68113046  kBar
(Free)E+ p_basis*V_orbitals  =        -465.253976
(Free)Eharris+ p_basis*V_orbitals  =        -465.253976

siesta: Electric dipole (a.u.)  =   -0.000001    0.557634   -0.000004
siesta: Electric dipole (Debye) =   -0.000001    1.417366   -0.000010

cite: Please see "h2o_orderN.bib" for an exhaustive BiBTeX file.
cite: Please clearly indicate Siesta version in published work: v4.1-b4-351
cite: This calculation has made use of the following articles
cite: which are encouraged to be cited in a published work.
        Primary SIESTA paper
          DOI: www.doi.org/10.1088/0953-8984/14/11/302

>> End of run:  22-JAN-2021  23:10:45
Job completed
