Siesta Version: siesta-3.2
Architecture  : SIESTA_ARCH
Compiler flags: FFLAGS
PARALLEL version
NetCDF support

* Running on    4 nodes in parallel
>> Start of run:  24-MAR-2013  18:28:24

                           ***********************       
                           *  WELCOME TO SIESTA  *       
                           ***********************       

reinit: Reading from standard input
************************** Dump of input data file ****************************
SystemName          Water molecule -- pseudopotential reparametrization
SystemLabel         h2o_reparam
NumberOfAtoms       3
NumberOfSpecies     2
MeshCutoff  50 Ry
%block ChemicalSpeciesLabel
 1  8  O      # Species index, atomic number, species label
 2  1  H
%endblock ChemicalSpeciesLabel
Reparametrize.Pseudos  T       # Use a finer grid
AtomicCoordinatesFormat  Ang
%block AtomicCoordinatesAndAtomicSpecies
 0.000  0.000  0.000  1
 0.757  0.586  0.000  2
-0.757  0.586  0.000  2
%endblock AtomicCoordinatesAndAtomicSpecies
save-rho T
save-delta-rho T
save-total-potential T
save-hs T
************************** End of input data file *****************************

reinit: -----------------------------------------------------------------------
reinit: System Name: Water molecule -- pseudopotential reparametrization
reinit: -----------------------------------------------------------------------
reinit: System Label: h2o_reparam                                                 
reinit: -----------------------------------------------------------------------

initatom: Reading input for the pseudopotentials and atomic orbitals ----------
 Species number:            1  Label: O Atomic number:           8
 Species number:            2  Label: H Atomic number:           1
Ground state valence configuration:   2s02  2p04
Reading pseudopotential information in formatted form from O.psf

Valence configuration for pseudopotential generation:
2s( 2.00) rc: 1.14
2p( 4.00) rc: 1.14
3d( 0.00) rc: 1.14
4f( 0.00) rc: 1.14
 Reparametrization. rmax:    119.46887352100001     
 Reparametrization. New nrval:         9389
Writing pseudopotential information in formatted form to O.Reparam.psf
Ground state valence configuration:   1s01
Reading pseudopotential information in formatted form from H.psf

Valence configuration for pseudopotential generation:
1s( 1.00) rc: 1.25
2p( 0.00) rc: 1.25
3d( 0.00) rc: 1.25
4f( 0.00) rc: 1.25
 Reparametrization. rmax:    119.99851211799999     
 Reparametrization. New nrval:         9393
Writing pseudopotential information in formatted form to H.Reparam.psf
For O, standard SIESTA heuristics set lmxkb to 3
 (one more than the basis l, including polarization orbitals).
Use PS.lmax or PS.KBprojectors blocks to override.
For H, standard SIESTA heuristics set lmxkb to 2
 (one more than the basis l, including polarization orbitals).
Use PS.lmax or PS.KBprojectors blocks to override.

<basis_specs>
===============================================================================
O                    Z=   8    Mass=  16.000        Charge= 0.17977+309
Lmxo=1 Lmxkb= 3    BasisType=split      Semic=F
L=0  Nsemic=0  Cnfigmx=2
          n=1  nzeta=2  polorb=0
            splnorm:   0.15000    
               vcte:    0.0000    
               rinn:    0.0000    
                rcs:    0.0000      0.0000    
            lambdas:    1.0000      1.0000    
L=1  Nsemic=0  Cnfigmx=2
          n=1  nzeta=2  polorb=1
            splnorm:   0.15000    
               vcte:    0.0000    
               rinn:    0.0000    
                rcs:    0.0000      0.0000    
            lambdas:    1.0000      1.0000    
-------------------------------------------------------------------------------
L=0  Nkbl=1  erefs: 0.17977+309
L=1  Nkbl=1  erefs: 0.17977+309
L=2  Nkbl=1  erefs: 0.17977+309
L=3  Nkbl=1  erefs: 0.17977+309
===============================================================================
</basis_specs>

atom: Called for O                     (Z =   8)
Maximum radius (at nrval) set to   50.00000 8518

read_vps: Pseudopotential generation method:
read_vps: ATM3      Troullier-Martins                       
Total valence charge:    6.00000

xc_check: Exchange-correlation functional:
xc_check: Ceperley-Alder
V l=0 = -2*Zval/r beyond r=  1.1366
V l=1 = -2*Zval/r beyond r=  1.1332
V l=2 = -2*Zval/r beyond r=  1.1298
V l=3 = -2*Zval/r beyond r=  1.1264
All V_l potentials equal beyond r=  1.1355
This should be close to max(r_c) in ps generation
All pots = -2*Zval/r beyond r=  1.1366

VLOCAL1: 99.0% of the norm of Vloc inside     33.667 Ry
VLOCAL1: 99.9% of the norm of Vloc inside     76.727 Ry
atom: Maximum radius for 4*pi*r*r*local-pseudopot. charge    1.37241
atom: Maximum radius for r*vlocal+2*Zval:    1.18582
GHOST: No ghost state for L =  0
GHOST: No ghost state for L =  1
GHOST: No ghost state for L =  2
GHOST: No ghost state for L =  3

KBgen: Kleinman-Bylander projectors: 
   l= 0   rc=  1.293209   el= -1.742414   Ekb=  9.076872   kbcos=  0.325320
   l= 1   rc=  1.284119   el= -0.676589   Ekb= -8.194485   kbcos= -0.396010
   l= 2   rc=  1.433152   el=  0.013307   Ekb= -2.071665   kbcos= -0.003690
   l= 3   rc=  1.540891   el=  0.019584   Ekb= -0.817137   kbcos= -0.000371

KBgen: Total number of  Kleinman-Bylander projectors:   16
atom: -------------------------------------------------------------------------

atom: SANKEY-TYPE ORBITALS:
atom: Selected multiple-zeta basis: split     

SPLIT: Orbitals with angular momentum L= 0

SPLIT: Basis orbitals for state 2s

SPLIT: PAO cut-off radius determined from an
SPLIT: energy shift=  0.020000 Ry

   izeta = 1
                 lambda =    1.000000
                     rc =    3.279810
                 energy =   -1.722491
                kinetic =    1.619784
    potential(screened) =   -3.342275
       potential(ionic) =  -11.312589

   izeta = 2
                 rmatch =    2.513962
              splitnorm =    0.150000
                 energy =   -1.455578
                kinetic =    2.478595
    potential(screened) =   -3.934173
       potential(ionic) =  -12.508399

SPLIT: Orbitals with angular momentum L= 1

SPLIT: Basis orbitals for state 2p

SPLIT: PAO cut-off radius determined from an
SPLIT: energy shift=  0.020000 Ry

   izeta = 1
                 lambda =    1.000000
                     rc =    3.866101
                 energy =   -0.656549
                kinetic =    5.031559
    potential(screened) =   -5.688108
       potential(ionic) =  -13.490224

   izeta = 2
                 rmatch =    2.544432
              splitnorm =    0.150000
                 energy =   -0.368571
                kinetic =    7.523386
    potential(screened) =   -7.891957
       potential(ionic) =  -16.604143

POLgen: Perturbative polarization orbital with L=  2

POLgen: Polarization orbital for state 2p

   izeta = 1
                     rc =    3.866101
                 energy =    2.426070
                kinetic =    4.759405
    potential(screened) =   -2.333335
       potential(ionic) =   -8.644944
atom: Total number of Sankey-type orbitals: 13

atm_pop: Valence configuration (for local Pseudopot. screening):
 2s( 2.00)                                                            
 2p( 4.00)                                                            
Vna: chval, zval:    6.00000   6.00000

Vna:  Cut-off radius for the neutral-atom potential:   3.866101

atom: _________________________________________________________________________

<basis_specs>
===============================================================================
H                    Z=   1    Mass=  1.0100        Charge= 0.17977+309
Lmxo=0 Lmxkb= 2    BasisType=split      Semic=F
L=0  Nsemic=0  Cnfigmx=1
          n=1  nzeta=2  polorb=1
            splnorm:   0.15000    
               vcte:    0.0000    
               rinn:    0.0000    
                rcs:    0.0000      0.0000    
            lambdas:    1.0000      1.0000    
-------------------------------------------------------------------------------
L=0  Nkbl=1  erefs: 0.17977+309
L=1  Nkbl=1  erefs: 0.17977+309
L=2  Nkbl=1  erefs: 0.17977+309
===============================================================================
</basis_specs>

atom: Called for H                     (Z =   1)
Maximum radius (at nrval) set to   50.00000 8518

read_vps: Pseudopotential generation method:
read_vps: ATM3      Troullier-Martins                       
Total valence charge:    1.00000

xc_check: Exchange-correlation functional:
xc_check: Ceperley-Alder
V l=0 = -2*Zval/r beyond r=  1.2384
V l=1 = -2*Zval/r beyond r=  1.2321
V l=2 = -2*Zval/r beyond r=  1.2272
All V_l potentials equal beyond r=  1.2371
This should be close to max(r_c) in ps generation
All pots = -2*Zval/r beyond r=  1.2384

VLOCAL1: 99.0% of the norm of Vloc inside     28.363 Ry
VLOCAL1: 99.9% of the norm of Vloc inside     64.639 Ry
atom: Maximum radius for 4*pi*r*r*local-pseudopot. charge    1.44620
atom: Maximum radius for r*vlocal+2*Zval:    1.22224
GHOST: No ghost state for L =  0
GHOST: No ghost state for L =  1
GHOST: No ghost state for L =  2

KBgen: Kleinman-Bylander projectors: 
   l= 0   rc=  1.364142   el= -0.467325   Ekb= -2.009475   kbcos= -0.336680
   l= 1   rc=  1.430269   el=  0.007562   Ekb= -0.503817   kbcos= -0.022554
   l= 2   rc=  1.469686   el=  0.013286   Ekb= -0.191752   kbcos= -0.002430

KBgen: Total number of  Kleinman-Bylander projectors:    9
atom: -------------------------------------------------------------------------

atom: SANKEY-TYPE ORBITALS:
atom: Selected multiple-zeta basis: split     

SPLIT: Orbitals with angular momentum L= 0

SPLIT: Basis orbitals for state 1s

SPLIT: PAO cut-off radius determined from an
SPLIT: energy shift=  0.020000 Ry

   izeta = 1
                 lambda =    1.000000
                     rc =    4.743256
                 energy =   -0.447309
                kinetic =    0.938780
    potential(screened) =   -1.386089
       potential(ionic) =   -1.923281

   izeta = 2
                 rmatch =    3.850628
              splitnorm =    0.150000
                 energy =   -0.336020
                kinetic =    1.505516
    potential(screened) =   -1.841537
       potential(ionic) =   -2.413684

POLgen: Perturbative polarization orbital with L=  1

POLgen: Polarization orbital for state 1s

   izeta = 1
                     rc =    4.743256
                 energy =    0.722864
                kinetic =    1.418804
    potential(screened) =   -0.695940
       potential(ionic) =   -1.177934
atom: Total number of Sankey-type orbitals:  5

atm_pop: Valence configuration (for local Pseudopot. screening):
 1s( 1.00)                                                            
Vna: chval, zval:    1.00000   1.00000

Vna:  Cut-off radius for the neutral-atom potential:   4.743256

atom: _________________________________________________________________________

prinput: Basis input ----------------------------------------------------------

PAO.BasisType split     

%block ChemicalSpeciesLabel
    1    8 O                       # Species index, atomic number, species label
    2    1 H                       # Species index, atomic number, species label
%endblock ChemicalSpeciesLabel

%block PAO.Basis                 # Define Basis set
O                     2                    # Species label, number of l-shells
 n=2   0   2                         # n, l, Nzeta 
   3.280      2.514   
   1.000      1.000   
 n=2   1   2 P   1                   # n, l, Nzeta, Polarization, NzetaPol
   3.866      2.544   
   1.000      1.000   
H                     1                    # Species label, number of l-shells
 n=1   0   2 P   1                   # n, l, Nzeta, Polarization, NzetaPol
   4.743      3.851   
   1.000      1.000   
%endblock PAO.Basis

prinput: ----------------------------------------------------------------------

Dumping basis to NetCDF file O.ion.nc
Dumping basis to NetCDF file H.ion.nc
coor:   Atomic-coordinates input format  =     Cartesian coordinates
coor:                                          (in Angstroms)

siesta: Atomic coordinates (Bohr) and species
siesta:      0.00000   0.00000   0.00000  1        1
siesta:      1.43052   1.10738   0.00000  2        2
siesta:     -1.43052   1.10738   0.00000  2        3

siesta: Automatic unit cell vectors (Ang):
siesta:    7.187448    0.000000    0.000000
siesta:    0.000000    5.656061    0.000000
siesta:    0.000000    0.000000    5.522048

siesta: System type = molecule  

initatomlists: Number of atoms, orbitals, and projectors:      3    23    34

siesta: ******************** Simulation parameters ****************************
siesta:
siesta: The following are some of the parameters of the simulation.
siesta: A complete list of the parameters used, including default values,
siesta: can be found in file out.fdf
siesta:
redata: Non-Collinear-spin run           =     F
redata: SpinPolarized (Up/Down) run      =     F
redata: Number of spin components        =     1
redata: Long output                      =     F
redata: Number of Atomic Species         =        2
redata: Charge density info will appear in .RHO file
redata: Write Mulliken Pop.              =     NO
redata: Mesh Cutoff                      =    50.0000  Ry
redata: Net charge of the system         =     0.0000 |e|
redata: Max. number of SCF Iter          =       50
redata: Mixing is linear
redata: Mix DM in first SCF step ?       =     F
redata: Write Pulay info on disk?        =     F
redata: Discard 1st Pulay DM after  kick =     F
redata: New DM Mixing Weight             =     0.2500
redata: New DM Occupancy tolerance       = 0.000000000001
redata: No kicks to SCF
redata: DM Mixing Weight for Kicks       =     0.5000
redata: DM Tolerance for SCF             =     0.000100
redata: Require Energy convergence for SCF =     F
redata: DM Energy tolerance for SCF      =     0.000100 eV
redata: Require Harris convergence for SCF =     F
redata: DM Harris energy tolerance for SCF =     0.000100 eV
redata: Using Saved Data (generic)   =     F
redata: Use continuation files for DM    =     F
redata: Neglect nonoverlap interactions  =     F
redata: Method of Calculation            =     Diagonalization
redata: Divide and Conquer               =     T
redata: Electronic Temperature           =     0.0019  Ry
redata: Fix the spin of the system       =     F
redata: Dynamics option                  =     Verlet MD run
redata: Initial MD time step             =        1
redata:   Final MD time step             =        1
redata: Length of MD time step           =     1.0000  fs
redata: Initial Temperature of MD run    =     0.0000  K
redata: Perform a MD quench              =     F
redata: ***********************************************************************
Total number of electrons:     8.000000
Total ionic charge:     8.000000

* ProcessorY, Blocksize:    2   6

 Kpoints in:            1 . Kpoints trimmed:            1

siesta: k-grid: Number of k-points =     1
siesta: k-grid: Cutoff (effective) =     2.761 Ang
siesta: k-grid: Supercell and displacements
siesta: k-grid:    1   0   0      0.000
siesta: k-grid:    0   1   0      0.000
siesta: k-grid:    0   0   1      0.000

* Maximum dynamic memory allocated =     2 MB

siesta:                 ==============================
                            Begin MD step =      1
                        ==============================

outcell: Unit cell vectors (Ang):
        7.187448    0.000000    0.000000
        0.000000    5.656061    0.000000
        0.000000    0.000000    5.522048

outcell: Cell vector modules (Ang)   :    7.187448    5.656061    5.522048
outcell: Cell angles (23,13,12) (deg):     90.0000     90.0000     90.0000
outcell: Cell volume (Ang**3)        :    224.4859
New_DM. Step:     1
Initializing Density Matrix...

InitMesh: MESH =    32 x    30 x    24 =       23040
InitMesh: Mesh cutoff (required, used) =    50.000    52.206 Ry

* Maximum dynamic memory allocated =     3 MB

stepf: Fermi-Dirac step function

siesta: Program's energy decomposition (eV):
siesta: Ebs     =      -121.161789
siesta: Eions   =       810.519748
siesta: Ena     =       170.405395
siesta: Ekin    =       343.454943
siesta: Enl     =       -54.575907
siesta: DEna    =        -0.000001
siesta: DUscf   =         0.000000
siesta: DUext   =         0.000000
siesta: Exc     =      -110.281282
siesta: eta*DQ  =         0.000000
siesta: Emadel  =         0.000000
siesta: Emeta   =         0.000000
siesta: Emolmec =         0.000000
siesta: Ekinion =         0.000000
siesta: Eharris =      -466.319482
siesta: Etot    =      -461.516601
siesta: FreeEng =      -461.516601

siesta: iscf   Eharris(eV)      E_KS(eV)   FreeEng(eV)   dDmax  Ef(eV)
siesta:    1     -466.3195     -461.5166     -461.5166  1.4263 -3.7778
timer: Routine,Calls,Time,% = IterSCF        1       3.799  55.21
elaps: Routine,Calls,Wall,% = IterSCF        1       0.936  53.86
siesta:    2     -466.7008     -465.2097     -465.2097  0.1671  0.1213
siesta:    3     -465.8391     -465.4149     -465.4149  0.0494 -1.2379
siesta:    4     -465.7658     -465.5069     -465.5069  0.0162 -1.6235
siesta:    5     -465.7588     -465.5703     -465.5703  0.0095 -1.7350
siesta:    6     -465.7580     -465.6173     -465.6173  0.0088 -1.7660
siesta:    7     -465.7578     -465.6524     -465.6524  0.0070 -1.7736
siesta:    8     -465.7578     -465.6788     -465.6788  0.0053 -1.7747
siesta:    9     -465.7578     -465.6985     -465.6985  0.0040 -1.7744
siesta:   10     -465.7578     -465.7134     -465.7134  0.0029 -1.7739
siesta:   11     -465.7578     -465.7245     -465.7245  0.0022 -1.7735
siesta:   12     -465.7578     -465.7328     -465.7328  0.0016 -1.7733
siesta:   13     -465.7578     -465.7390     -465.7390  0.0012 -1.7732
siesta:   14     -465.7578     -465.7438     -465.7438  0.0009 -1.7731
siesta:   15     -465.7578     -465.7473     -465.7473  0.0007 -1.7731
siesta:   16     -465.7578     -465.7499     -465.7499  0.0005 -1.7731
siesta:   17     -465.7578     -465.7519     -465.7519  0.0004 -1.7731
siesta:   18     -465.7578     -465.7533     -465.7533  0.0003 -1.7731
siesta:   19     -465.7578     -465.7545     -465.7545  0.0002 -1.7731
siesta:   20     -465.7578     -465.7553     -465.7553  0.0002 -1.7731
siesta:   21     -465.7578     -465.7559     -465.7559  0.0001 -1.7731
siesta:   22     -465.7578     -465.7564     -465.7564  0.0001 -1.7731

siesta: E_KS(eV) =             -465.7567

siesta: E_KS - E_eggbox =      -465.7567

siesta: Atomic forces (eV/Ang):
----------------------------------------
   Tot   -0.000000   -0.007372    0.000000
----------------------------------------
   Max    0.668044
   Res    0.378654    sqrt( Sum f_i^2 / 3N )
----------------------------------------
   Max    0.668044    constrained

Stress-tensor-Voigt (kbar):      -19.22       -3.72       19.84       -0.00       -0.00        0.00
(Free)E + p*V (eV/cell)     -465.6116
Target enthalpy (eV/cell)     -465.7567

siesta: Stress tensor (static) (eV/Ang**3):
        -0.011999   -0.000000   -0.000000
        -0.000000   -0.002322   -0.000000
         0.000000   -0.000000    0.012381

siesta: Pressure (static):          1.03606509  kBar

siesta: Stress tensor (total) (eV/Ang**3):
        -0.011999   -0.000000   -0.000000
        -0.000000   -0.002322   -0.000000
         0.000000   -0.000000    0.012381

siesta: Pressure (total):          1.03606509  kBar

siesta: Temp_ion =       0.000 K

* Maximum dynamic memory allocated =     3 MB

siesta: Program's energy decomposition (eV):
siesta: Ebs     =      -103.873345
siesta: Eions   =       810.519748
siesta: Ena     =       170.405395
siesta: Ekin    =       352.008614
siesta: Enl     =       -63.762097
siesta: DEna    =        -1.460645
siesta: DUscf   =         0.711999
siesta: DUext   =         0.000000
siesta: Exc     =      -113.140260
siesta: eta*DQ  =         0.000000
siesta: Emadel  =         0.000000
siesta: Emeta   =         0.000000
siesta: Emolmec =         0.000000
siesta: Ekinion =         0.000000
siesta: Eharris =      -465.757798
siesta: Etot    =      -465.756742
siesta: FreeEng =      -465.756742

siesta: Final energy (eV):
siesta:  Band Struct. =    -103.873345
siesta:       Kinetic =     352.008614
siesta:       Hartree =     380.905716
siesta:    Ext. field =       0.000000
siesta:   Exch.-corr. =    -113.140260
siesta:  Ion-electron =   -1069.451014
siesta:       Ion-ion =     -16.079799
siesta:       Ekinion =       0.000000
siesta:         Total =    -465.756742

siesta: Atomic forces (eV/Ang):
siesta:      1    0.000000   -0.517452    0.000000
siesta:      2    0.668044    0.255040    0.000000
siesta:      3   -0.668044    0.255039    0.000000
siesta: ----------------------------------------
siesta:    Tot   -0.000000   -0.007372    0.000000

siesta: Stress tensor (static) (eV/Ang**3):
siesta:    -0.011999   -0.000000   -0.000000
siesta:    -0.000000   -0.002322   -0.000000
siesta:     0.000000   -0.000000    0.012381

siesta: Cell volume =        224.485866 Ang**3

siesta: Pressure (static):
siesta:                Solid            Molecule  Units
siesta:           0.00000704         -0.00001419  Ry/Bohr**3
siesta:           0.00064665         -0.00130329  eV/Ang**3
siesta:           1.03606509         -2.08812350  kBar
(Free)E+ p_basis*V_orbitals  =        -465.195558
(Free)Eharris+ p_basis*V_orbitals  =        -465.196966

siesta: Electric dipole (a.u.)  =    0.000000    0.546040   -0.000000
siesta: Electric dipole (Debye) =    0.000000    1.387897   -0.000000

* Maximum dynamic memory allocated : Node    0 =     3 MB
* Maximum dynamic memory allocated : Node    1 =     3 MB
* Maximum dynamic memory allocated : Node    2 =     3 MB
* Maximum dynamic memory allocated : Node    3 =     3 MB

* Maximum memory occured during ranger                        

timer: CPU execution times:
timer:  Routine       Calls   Time/call    Tot.time        %
timer:  siesta            1       7.826       7.826   100.00
timer:  Setup             1       2.580       2.580    32.96
timer:  bands             1       0.002       0.002     0.03
timer:  writewave         1       0.000       0.000     0.00
timer:  KSV_init          1       0.000       0.000     0.00
timer:  IterMD            1       5.166       5.166    66.02
timer:  hsparse           1       0.000       0.000     0.00
timer:  overlap           1       0.337       0.337     4.31
timer:  IterSCF          22       0.208       4.573    58.44
timer:  kinefsm           2       0.146       0.293     3.74
timer:  nlefsm            2       1.458       2.916    37.26
timer:  DHSCF            24       0.029       0.708     9.05
timer:  DHSCF1            1       0.024       0.024     0.31
timer:  DHSCF2            1       0.036       0.036     0.46
timer:  REORD           200       0.000       0.007     0.09
timer:  POISON           25       0.007       0.172     2.20
timer:  DHSCF3           24       0.026       0.622     7.95
timer:  rhoofd           24       0.006       0.143     1.83
timer:  cellXC           24       0.005       0.129     1.65
timer:  vmat             23       0.004       0.089     1.14
timer:  MolMec            2       0.000       0.000     0.00
timer:  diagon           22       0.006       0.128     1.64
timer:  r-eigvec         22       0.006       0.127     1.62
timer:  r-buildHS        22       0.000       0.000     0.00
timer:  rdiag            22       0.006       0.127     1.62
timer:  rdiag1           22       0.000       0.004     0.05
timer:  rdiag2           22       0.001       0.014     0.18
timer:  rdiag3           22       0.005       0.101     1.29
timer:  rdiag4           22       0.000       0.004     0.05
timer:  r-buildD         22       0.000       0.000     0.00
timer:  DHSCF4            1       0.026       0.026     0.33
timer:  dfscf             1       0.024       0.024     0.31
timer:  overfsm           1       0.000       0.000     0.00
timer:  optical           1       0.018       0.018     0.23
  

elaps: ELAPSED times:
elaps:  Routine       Calls   Time/call    Tot.time        %
elaps:  siesta            1       1.977       1.977    99.95
elaps:  Setup             1       0.659       0.659    33.32
elaps:  bands             1       0.001       0.001     0.05
elaps:  writewave         1       0.000       0.000     0.00
elaps:  KSV_init          1       0.000       0.000     0.00
elaps:  IterMD            1       1.295       1.295    65.47
elaps:  hsparse           1       0.000       0.000     0.00
elaps:  overlap           1       0.066       0.066     3.34
elaps:  IterSCF          22       0.051       1.130    57.13
elaps:  kinefsm           2       0.027       0.055     2.78
elaps:  nlefsm            2       0.356       0.711    35.95
elaps:  DHSCF            24       0.008       0.181     9.15
elaps:  DHSCF1            1       0.006       0.006     0.30
elaps:  DHSCF2            1       0.009       0.009     0.46
elaps:  REORD           200       0.000       0.004     0.20
elaps:  POISON           25       0.002       0.044     2.22
elaps:  DHSCF3           24       0.007       0.157     7.94
elaps:  rhoofd           24       0.002       0.040     2.02
elaps:  cellXC           24       0.001       0.033     1.67
elaps:  vmat             23       0.001       0.023     1.16
elaps:  MolMec            2       0.000       0.000     0.00
elaps:  diagon           22       0.002       0.036     1.82
elaps:  r-eigvec         22       0.002       0.034     1.72
elaps:  r-buildHS        22       0.000       0.000     0.00
elaps:  rdiag            22       0.002       0.034     1.72
elaps:  rdiag1           22       0.000       0.001     0.05
elaps:  rdiag2           22       0.000       0.006     0.30
elaps:  rdiag3           22       0.001       0.025     1.26
elaps:  rdiag4           22       0.000       0.001     0.05
elaps:  r-buildD         22       0.000       0.002     0.10
elaps:  DHSCF4            1       0.008       0.008     0.40
elaps:  dfscf             1       0.007       0.007     0.35
elaps:  overfsm           1       0.000       0.000     0.00
elaps:  optical           1       0.000       0.000     0.00
  
>> End of run:  24-MAR-2013  18:28:26
