
                           ***********************       
                           *  WELCOME TO SIESTA  *       
                           ***********************       

reinit: Reading from ../h2o_meshcutoff.fdf

reinit: -----------------------------------------------------------------------
reinit: System Name: Water molecule
reinit: -----------------------------------------------------------------------
reinit: System Label: h2o_meshcutoff
reinit: -----------------------------------------------------------------------
Siesta Version: siesta-4.1--731
Architecture  : x86_64-linux-n-62-18-14
Compiler flags: mpifort -m64 -fPIC -O3 -march=native -ftree-vectorize -fexpensive-optimizatioons -funroll-loops -fprefetch-loop-arrays -fno-second-underscore  -flto -fuse-linker-plugin
PP flags      : -I/zdata/groups/common/nicpa/2016-oct/generic/build-tools/1.0/include -I/zdatta/groups/common/nicpa/2016-oct/generic/gmp/6.1.0/include -I/zdata/groups/common/nicpa/2016-oct/generic/mpfr/3.1.4/include -I/zdata/groups/common/nicpa/2016-oct/generic/mpc/1.0.3/include -I/zdata/groups/common/nicpa/2016-oct/generic/isl/0.16.1/include -I/zdata/groups/common/nicpa/2016-oct/generic/gcc/6.2.0/include -I/zdata/groups/common/nicpa/2016-oct/generic/numactl/2.0.11/include -I/zdata/groups/common/nicpa/2016-oct/XeonE5-2665/zlib/1.2.8/gnu-6.2.0/include -I/zdata/groups/common/nicpa/2016-oct/XeonE5-2665/libxml2/2.9.4/gnu-6.2.0/include -I/zdata/groups/common/nicpa/2016-oct/XeonE5-2665/hwloc/1.11.4/gnu-6.2.0/include -I/zdata/groups/common/nicpa/2016-oct/XeonE5-2665/openmpi/2.0.1/gnu-6.2.0/include -I/zdata/groups/common/nicpa/2016-oct/XeonE5-2665/hdf5/1.8.17/gnu-6.2.0/include -I/zdata/groups/common/nicpa/2016-oct/XeonE5-2665/pnetcdf/1.7.0/gnu-6.2.0/include -I/zdata/groups/common/nicpa/2016-oct/XeonE5-2665/netcdf/4.4.1/gnu-6.2.0/include -I/zdata/groups/common/nicpa/2016-oct/XeonE5-2665/flook/0.7.0/gnu-6.2.0/include -I/zdata/groups/common/nicpa/2016-oct/XeonE5-2665/parmetis/4.0.3/gnu-6.2.0/include -I/zdata/groups/common/nicpa/2016-oct/XeonE5-2665/scalapack/204/gnu-6.2.0/include -I/zdata/groups/common/nicpa/2016-oct/XeonE5-2665/openblas/0.2.19/gnu-6.2.0/include -I/zdata/groups/common/nicpa/2016-oct/XeonE5-2665/mumps/5.0.2/gnu-6.2.0/include -I/zdata/groups/common/nicpa/2016-oct/XeonE5-2665/fftw/3.3.5/gnu-6.2.0/include -DMPI -DFC_HAVE_FLUSH -DFC_HAVE_ABORT -DCDF -DCDF4 -DSIESTA__METIS -DSIESTA__MUMPS -DTS_NOCHECKS -DNCDF -DNCDF_4 -DNCDF_PARALLEL -DSIESTA__FLOOK
Libraries     : -lnetcdff -lnetcdf -lpnetcdf -lhdf5_hl -lhdf5 -lz  -lzmumps -lmumps_common -llpord -lparmetis -lmetis -lscalapack -lopenblas  -lmetis -flto -fuse-linker-plugin  -L/zdata/groups/common/nicpa/2016-oct/XeonE5-2665/flook/0.7.0/gnu-6.2.0/lib -Wl,-rpath=/zdata/groups/common/nicpa/2016-oct/XeonE5-2665/flook/0.7.0/gnu-6.2.0/lib -lflookall -ldl
PARALLEL version
NetCDF support
NetCDF-4 support
NetCDF-4 MPI-IO support
METIS ordering support

* Running on 8 nodes in parallel
>> Start of run:   4-JUL-2017   8:28:46

initatom: Reading input for the pseudopotentials and atomic orbitals ----------
Species number:   1 Atomic number:    8 Label: O
Species number:   2 Atomic number:    1 Label: H

Ground state valence configuration:   2s02  2p04
Reading pseudopotential information in formatted form from O.psf

Valence configuration for pseudopotential generation:
2s( 2.00) rc: 1.14
2p( 4.00) rc: 1.14
3d( 0.00) rc: 1.14
4f( 0.00) rc: 1.14
Ground state valence configuration:   1s01
Reading pseudopotential information in formatted form from H.psf

Valence configuration for pseudopotential generation:
1s( 1.00) rc: 1.25
2p( 0.00) rc: 1.25
3d( 0.00) rc: 1.25
4f( 0.00) rc: 1.25
For O, standard SIESTA heuristics set lmxkb to 3
 (one more than the basis l, including polarization orbitals).
Use PS.lmax or PS.KBprojectors blocks to override.
For H, standard SIESTA heuristics set lmxkb to 2
 (one more than the basis l, including polarization orbitals).
Use PS.lmax or PS.KBprojectors blocks to override.

<basis_specs>
===============================================================================
O                    Z=   8    Mass=  16.000        Charge= 0.17977+309
Lmxo=1 Lmxkb= 3    BasisType=split      Semic=F
L=0  Nsemic=0  Cnfigmx=2
          n=1  nzeta=2  polorb=0
            splnorm:   0.15000    
               vcte:    0.0000    
               rinn:    0.0000    
               qcoe:    0.0000    
               qyuk:    0.0000    
               qwid:   0.10000E-01
                rcs:    0.0000      0.0000    
            lambdas:    1.0000      1.0000    
L=1  Nsemic=0  Cnfigmx=2
          n=1  nzeta=2  polorb=1
            splnorm:   0.15000    
               vcte:    0.0000    
               rinn:    0.0000    
               qcoe:    0.0000    
               qyuk:    0.0000    
               qwid:   0.10000E-01
                rcs:    0.0000      0.0000    
            lambdas:    1.0000      1.0000    
-------------------------------------------------------------------------------
L=0  Nkbl=1  erefs: 0.17977+309
L=1  Nkbl=1  erefs: 0.17977+309
L=2  Nkbl=1  erefs: 0.17977+309
L=3  Nkbl=1  erefs: 0.17977+309
===============================================================================
</basis_specs>

atom: Called for O                     (Z =   8)

read_vps: Pseudopotential generation method:
read_vps: ATM3      Troullier-Martins                       
Total valence charge:    6.00000

xc_check: Exchange-correlation functional:
xc_check: Ceperley-Alder
V l=0 = -2*Zval/r beyond r=  1.1278
V l=1 = -2*Zval/r beyond r=  1.1278
V l=2 = -2*Zval/r beyond r=  1.1278
V l=3 = -2*Zval/r beyond r=  1.1138
All V_l potentials equal beyond r=  1.1278
This should be close to max(r_c) in ps generation
All pots = -2*Zval/r beyond r=  1.1278

VLOCAL1: 99.0% of the norm of Vloc inside     34.126 Ry
VLOCAL1: 99.9% of the norm of Vloc inside     77.774 Ry
atom: Maximum radius for 4*pi*r*r*local-pseudopot. charge    1.37759
atom: Maximum radius for r*vlocal+2*Zval:    1.18566
GHOST: No ghost state for L =  0
GHOST: No ghost state for L =  1
GHOST: No ghost state for L =  2
GHOST: No ghost state for L =  3

KBgen: Kleinman-Bylander projectors: 
   l= 0   rc=  1.294105   el= -1.742414   Ekb=  9.135903   kbcos=  0.326910
   l= 1   rc=  1.294105   el= -0.676589   Ekb= -8.124878   kbcos= -0.395047
   l= 2   rc=  1.448233   el=  0.002386   Ekb= -2.039267   kbcos= -0.003484
   l= 3   rc=  1.561052   el=  0.003508   Ekb= -0.799141   kbcos= -0.000344

KBgen: Total number of  Kleinman-Bylander projectors:   16
atom: -------------------------------------------------------------------------

atom: SANKEY-TYPE ORBITALS:
atom: Selected multiple-zeta basis: split     

SPLIT: Orbitals with angular momentum L= 0

SPLIT: Basis orbitals for state 2s

SPLIT: PAO cut-off radius determined from an
SPLIT: energy shift=  0.020000 Ry

   izeta = 1
                 lambda =    1.000000
                     rc =    3.305093
                 energy =   -1.723766
                kinetic =    1.614911
    potential(screened) =   -3.338677
       potential(ionic) =  -11.304675

   izeta = 2
                 rmatch =    2.510382
              splitnorm =    0.150000
                 energy =   -1.471299
                kinetic =    2.446434
    potential(screened) =   -3.917732
       potential(ionic) =  -12.476133

SPLIT: Orbitals with angular momentum L= 1

SPLIT: Basis orbitals for state 2p

SPLIT: PAO cut-off radius determined from an
SPLIT: energy shift=  0.020000 Ry

   izeta = 1
                 lambda =    1.000000
                     rc =    3.937239
                 energy =   -0.658841
                kinetic =    5.005986
    potential(screened) =   -5.664827
       potential(ionic) =  -13.452360

   izeta = 2
                 rmatch =    2.541963
              splitnorm =    0.150000
                 energy =   -0.367441
                kinetic =    7.530509
    potential(screened) =   -7.897949
       potential(ionic) =  -16.611953

POLgen: Perturbative polarization orbital with L=  2

POLgen: Polarization orbital for state 2p

   izeta = 1
                     rc =    3.937239
                 energy =    2.398520
                kinetic =    4.716729
    potential(screened) =   -2.318209
       potential(ionic) =   -8.603170
atom: Total number of Sankey-type orbitals: 13

atm_pop: Valence configuration (for local Pseudopot. screening):
 2s( 2.00)                                                            
 2p( 4.00)                                                            
Vna: chval, zval:    6.00000   6.00000

Vna:  Cut-off radius for the neutral-atom potential:   3.937239

atom: _________________________________________________________________________

<basis_specs>
===============================================================================
H                    Z=   1    Mass=  1.0100        Charge= 0.17977+309
Lmxo=0 Lmxkb= 2    BasisType=split      Semic=F
L=0  Nsemic=0  Cnfigmx=1
          n=1  nzeta=2  polorb=1
            splnorm:   0.15000    
               vcte:    0.0000    
               rinn:    0.0000    
               qcoe:    0.0000    
               qyuk:    0.0000    
               qwid:   0.10000E-01
                rcs:    0.0000      0.0000    
            lambdas:    1.0000      1.0000    
-------------------------------------------------------------------------------
L=0  Nkbl=1  erefs: 0.17977+309
L=1  Nkbl=1  erefs: 0.17977+309
L=2  Nkbl=1  erefs: 0.17977+309
===============================================================================
</basis_specs>

atom: Called for H                     (Z =   1)

read_vps: Pseudopotential generation method:
read_vps: ATM3      Troullier-Martins                       
Total valence charge:    1.00000

xc_check: Exchange-correlation functional:
xc_check: Ceperley-Alder
V l=0 = -2*Zval/r beyond r=  1.2343
V l=1 = -2*Zval/r beyond r=  1.2189
V l=2 = -2*Zval/r beyond r=  1.2189
All V_l potentials equal beyond r=  1.2343
This should be close to max(r_c) in ps generation
All pots = -2*Zval/r beyond r=  1.2343

VLOCAL1: 99.0% of the norm of Vloc inside     28.493 Ry
VLOCAL1: 99.9% of the norm of Vloc inside     64.935 Ry
atom: Maximum radius for 4*pi*r*r*local-pseudopot. charge    1.45251
atom: Maximum radius for r*vlocal+2*Zval:    1.21892
GHOST: No ghost state for L =  0
GHOST: No ghost state for L =  1
GHOST: No ghost state for L =  2

KBgen: Kleinman-Bylander projectors: 
   l= 0   rc=  1.364359   el= -0.467325   Ekb= -2.005361   kbcos= -0.336422
   l= 1   rc=  1.434438   el=  0.001430   Ekb= -0.501708   kbcos= -0.021697
   l= 2   rc=  1.470814   el=  0.002365   Ekb= -0.190555   kbcos= -0.002281

KBgen: Total number of  Kleinman-Bylander projectors:    9
atom: -------------------------------------------------------------------------

atom: SANKEY-TYPE ORBITALS:
atom: Selected multiple-zeta basis: split     

SPLIT: Orbitals with angular momentum L= 0

SPLIT: Basis orbitals for state 1s

SPLIT: PAO cut-off radius determined from an
SPLIT: energy shift=  0.020000 Ry

   izeta = 1
                 lambda =    1.000000
                     rc =    4.828263
                 energy =   -0.449375
                kinetic =    0.929372
    potential(screened) =   -1.378747
       potential(ionic) =   -1.915047

   izeta = 2
                 rmatch =    3.854947
              splitnorm =    0.150000
                 energy =   -0.336153
                kinetic =    1.505294
    potential(screened) =   -1.841447
       potential(ionic) =   -2.413582

POLgen: Perturbative polarization orbital with L=  1

POLgen: Polarization orbital for state 1s

   izeta = 1
                     rc =    4.828263
                 energy =    0.706972
                kinetic =    1.396397
    potential(screened) =   -0.689424
       potential(ionic) =   -1.169792
atom: Total number of Sankey-type orbitals:  5

atm_pop: Valence configuration (for local Pseudopot. screening):
 1s( 1.00)                                                            
Vna: chval, zval:    1.00000   1.00000

Vna:  Cut-off radius for the neutral-atom potential:   4.828263

atom: _________________________________________________________________________

prinput: Basis input ----------------------------------------------------------

PAO.BasisType split     

%block ChemicalSpeciesLabel
    1    8 O                       # Species index, atomic number, species label
    2    1 H                       # Species index, atomic number, species label
%endblock ChemicalSpeciesLabel

%block PAO.Basis                 # Define Basis set
O                     2                    # Species label, number of l-shells
 n=2   0   2                         # n, l, Nzeta 
   3.305      2.510   
   1.000      1.000   
 n=2   1   2 P   1                   # n, l, Nzeta, Polarization, NzetaPol
   3.937      2.542   
   1.000      1.000   
H                     1                    # Species label, number of l-shells
 n=1   0   2 P   1                   # n, l, Nzeta, Polarization, NzetaPol
   4.828      3.855   
   1.000      1.000   
%endblock PAO.Basis

prinput: ----------------------------------------------------------------------

Dumping basis to NetCDF file O.ion.nc
Dumping basis to NetCDF file H.ion.nc
coor:   Atomic-coordinates input format  =     Cartesian coordinates
coor:                                          (in Angstroms)

siesta: Atomic coordinates (Bohr) and species
siesta:      0.00000   0.00000   0.00000  1        1
siesta:      1.43052   1.10738   0.00000  2        2
siesta:     -1.43052   1.10738   0.00000  2        3

siesta: Automatic unit cell vectors (Ang):
siesta:    7.286412    0.000000    0.000000
siesta:    0.000000    5.746952    0.000000
siesta:    0.000000    0.000000    5.621012

siesta: System type = molecule  

initatomlists: Number of atoms, orbitals, and projectors:      3    23    34

siesta: ******************** Simulation parameters ****************************
siesta:
siesta: The following are some of the parameters of the simulation.
siesta: A complete list of the parameters used, including default values,
siesta: can be found in file out.fdf
siesta:
redata: Spin configuration                          = none
redata: Number of spin components                   = 1
redata: Time-Reversal Symmetry                      = T
redata: Spin-spiral                                 = F
redata: Long output                                 =   F
redata: Number of Atomic Species                    =        2
redata: Charge density info will appear in .RHO file
redata: Write Mulliken Pop.                         = NO
redata: Mesh Cutoff                                 =    50.0000 Ry
redata: Net charge of the system                    =     0.0000 |e|
redata: Min. number of SCF Iter                     =        0
redata: Max. number of SCF Iter                     =       50
redata: SCF mix quantity                            = Hamiltonian
redata: Mix DM or H after convergence               =   F
redata: Recompute H after scf cycle                 =   F
redata: Mix DM in first SCF step                    =   T
redata: Write Pulay info on disk                    =   F
redata: New DM Mixing Weight                        =     0.2500
redata: New DM Occupancy tolerance                  = 0.000000000001
redata: No kicks to SCF
redata: DM Mixing Weight for Kicks                  =     0.5000
redata: Require Harris convergence for SCF          =   F
redata: Harris energy tolerance for SCF             =     0.000100 eV
redata: Require DM convergence for SCF              =   T
redata: DM tolerance for SCF                        =     0.0001
redata: Require EDM convergence for SCF             =   F
redata: EDM tolerance for SCF                       =     0.001000 eV
redata: Require H convergence for SCF               =   T
redata: Hamiltonian tolerance for SCF               =     0.001000 eV
redata: Require (free) Energy convergence for SCF   =   F
redata: (free) Energy tolerance for SCF             =     0.000100 eV
redata: Using Saved Data (generic)                  =   F
redata: Use continuation files for DM               =   F
redata: Neglect nonoverlap interactions             =   F
redata: Method of Calculation                       = Diagonalization
redata: Divide and Conquer                          =   T
redata: Electronic Temperature                      =   299.9869 K
redata: Fix the spin of the system                  =   F
redata: Dynamics option                             = LUA
mix.SCF: Pulay mixing                            = Pulay
mix.SCF:    Variant                              = stable
mix.SCF:    History steps                        = 2
mix.SCF:    Linear mixing weight                 =     0.250000
mix.SCF:    Mixing weight                        =     0.250000
mix.SCF:    SVD condition                        = 0.1000E-07
redata: Save all siesta data in one NC              =   F
redata: ***********************************************************************

%block SCF.Mixers
  Pulay
%endblock SCF.Mixers

%block SCF.Mixer.Pulay
  # Mixing method
  method pulay
  variant stable

  # Mixing options
  weight 0.2500
  weight.linear 0.2500
  history 2
%endblock SCF.Mixer.Pulay

Size of DM history Fstack: 1
Total number of electrons:     8.000000
Total ionic charge:     8.000000

* ProcessorY, Blocksize:    2   3


* Orbital distribution balance (max,min):     3     2

 Kpoints in:            1 . Kpoints trimmed:            1

siesta: k-grid: Number of k-points =     1
siesta: k-grid: Cutoff (effective) =     2.811 Ang
siesta: k-grid: Supercell and displacements
siesta: k-grid:    1   0   0      0.000
siesta: k-grid:    0   1   0      0.000
siesta: k-grid:    0   0   1      0.000


LUA: starting mesh-cutoff:   50.000 Ry


                     ====================================
                        LUA coord. step =      0
                     ====================================

outcell: Unit cell vectors (Ang):
        7.286412    0.000000    0.000000
        0.000000    5.746952    0.000000
        0.000000    0.000000    5.621012

outcell: Cell vector modules (Ang)   :    7.286412    5.746952    5.621012
outcell: Cell angles (23,13,12) (deg):     90.0000     90.0000     90.0000
outcell: Cell volume (Ang**3)        :    235.3780
<dSpData1D:S at geom step 0
  <sparsity:sparsity for geom step 0
    nrows_g=23 nrows=3 sparsity=.1304 nnzs=69, refcount: 7>
  <dData1D:(new from dSpData1D) n=69, refcount: 1>
refcount: 1>
new_DM -- step:     1
Initializing Density Matrix...
DM filled with atomic data:
<dSpData2D:DM initialized from atoms
  <sparsity:sparsity for geom step 0
    nrows_g=23 nrows=3 sparsity=.1304 nnzs=69, refcount: 8>
  <dData2D:DM n=69 m=1, refcount: 1>
refcount: 1>

No. of atoms with KB's overlaping orbs in proc 0. Max # of overlaps:       3      23
New grid distribution:   1
           1       1:   16    1:    8    1:    3
           2       1:   16    1:    8    4:    6
           3       1:   16    1:    8    7:    9
           4       1:   16    1:    8   10:   12
           5       1:   16    9:   15    1:    3
           6       1:   16    9:   15    4:    6
           7       1:   16    9:   15    7:    9
           8       1:   16    9:   15   10:   12

InitMesh: MESH =    32 x    30 x    24 =       23040
InitMesh: (bp) =    16 x    15 x    12 =        2880
InitMesh: Mesh cutoff (required, used) =    50.000    50.384 Ry
ExtMesh (bp) on 0 =    40 x    36 x    27 =       38880
New grid distribution:   2
           1       5:   16    5:   15    1:    4
           2       5:   16    1:    4    1:    4
           3       5:   16    1:    4    5:   12
           4       1:    4    1:    4    5:   12
           5       1:    4    5:   15    1:    4
           6       1:    4    1:    4    1:    4
           7       5:   16    5:   15    5:   12
           8       1:    4    5:   15    5:   12
New grid distribution:   3
           1       1:    7    6:   15    1:    4
           2       8:   16    1:    5    1:    5
           3       1:    7    6:   15    5:   12
           4       8:   16    1:    5    6:   12
           5       8:   16    6:   15    1:    4
           6       1:    7    1:    5    6:   12
           7       8:   16    6:   15    5:   12
           8       1:    7    1:    5    1:    5
Setting up quadratic distribution...
ExtMesh (bp) on 0 =    36 x    39 x    28 =       39312
PhiOnMesh: Number of (b)points on node 0 =                  528
PhiOnMesh: nlist on node 0 =                 2325

stepf: Fermi-Dirac step function

siesta: Program's energy decomposition (eV):
siesta: Ebs     =       -86.527724
siesta: Eions   =       815.854478
siesta: Ena     =       175.154321
siesta: Ekin    =       370.751247
siesta: Enl     =       -67.181676
siesta: Eso     =         0.000000
siesta: Eldau   =         0.000000
siesta: DEna    =       -13.606312
siesta: DUscf   =         1.705533
siesta: DUext   =         0.000000
siesta: Exc     =      -116.213094
siesta: eta*DQ  =         0.000000
siesta: Emadel  =         0.000000
siesta: Emeta   =         0.000000
siesta: Emolmec =         0.000000
siesta: Ekinion =         0.000000
siesta: Eharris =      -467.645208
siesta: Etot    =      -465.244458
siesta: FreeEng =      -465.244458

        iscf     Eharris(eV)        E_KS(eV)     FreeEng(eV)     dDmax    Ef(eV) dHmax(eV)
   scf:    1     -467.645208     -465.244458     -465.244458  1.438730 -4.254018  6.304092
timer: Routine,Calls,Time,% = IterSCF        1       0.016   1.54
   scf:    2     -466.124875     -465.763870     -465.763870  0.046622 -3.203898  2.536085
   scf:    3     -465.849696     -465.836459     -465.836459  0.025064 -2.450205  0.346690
   scf:    4     -465.841502     -465.839128     -465.839128  0.010781 -2.371205  0.255425
   scf:    5     -465.841092     -465.840518     -465.840518  0.023618 -2.152275  0.044619
   scf:    6     -465.840727     -465.840635     -465.840635  0.001580 -2.149639  0.027740
   scf:    7     -465.840689     -465.840665     -465.840665  0.000885 -2.149921  0.014627
   scf:    8     -465.840677     -465.840671     -465.840671  0.000436 -2.152067  0.010016
   scf:    9     -465.840674     -465.840673     -465.840673  0.000473 -2.156136  0.003322
   scf:   10     -465.840673     -465.840673     -465.840673  0.000044 -2.157561  0.001940
   scf:   11     -465.840673     -465.840673     -465.840673  0.000014 -2.158566  0.001317
   scf:   12     -465.840673     -465.840673     -465.840673  0.000015 -2.158751  0.000747

SCF Convergence by DM+H criterion
max |DM_out - DM_in|         :     0.0000151486
max |H_out - H_in|      (eV) :     0.0007470259
SCF cycle converged after 12 iterations

Using DM_out to compute the final energy and forces
No. of atoms with KB's overlaping orbs in proc 0. Max # of overlaps:       3      23

siesta: E_KS(eV) =             -465.8407

siesta: E_KS - E_eggbox =      -465.8407

siesta: Atomic forces (eV/Ang):
----------------------------------------
   Tot   -0.000000    0.055861   -0.000000
----------------------------------------
   Max    0.717766
   Res    0.399597    sqrt( Sum f_i^2 / 3N )
----------------------------------------
   Max    0.717766    constrained

Stress-tensor-Voigt (kbar):      -20.20       -3.68       22.43        0.00        0.00        0.00
(Free)E + p*V (eV/cell)     -465.7698
Target enthalpy (eV/cell)     -465.8407

                     ====================================
                        LUA coord. step =      1
                     ====================================

outcell: Unit cell vectors (Ang):
        7.286412    0.000000    0.000000
        0.000000    5.746952    0.000000
        0.000000    0.000000    5.621012

outcell: Cell vector modules (Ang)   :    7.286412    5.746952    5.621012
outcell: Cell angles (23,13,12) (deg):     90.0000     90.0000     90.0000
outcell: Cell volume (Ang**3)        :    235.3780
<dSpData1D:S at geom step 1
  <sparsity:sparsity for geom step 1
    nrows_g=23 nrows=3 sparsity=.1304 nnzs=69, refcount: 7>
  <dData1D:(new from dSpData1D) n=69, refcount: 1>
refcount: 1>
new_DM -- step:     2
Re-using DM from previous geometries...
Number of DMs in history: 1
 DM extrapolation coefficients: 
1   1.00000
New DM after history re-use:
<dSpData2D:SpM extrapolated using coords
  <sparsity:sparsity for geom step 1
    nrows_g=23 nrows=3 sparsity=.1304 nnzs=69, refcount: 8>
  <dData2D:(temp array for extrapolation) n=69 m=1, refcount: 1>
refcount: 1>
No. of atoms with KB's overlaping orbs in proc 0. Max # of overlaps:       3      23
New grid distribution:   1
           1       1:   24    1:    9    1:    5
           2       1:   24    1:    9    6:   10
           3       1:   24    1:    9   11:   14
           4       1:   24    1:    9   15:   18
           5       1:   24   10:   18    1:    5
           6       1:   24   10:   18    6:   10
           7       1:   24   10:   18   11:   14
           8       1:   24   10:   18   15:   18

InitMesh: MESH =    48 x    36 x    36 =       62208
InitMesh: (bp) =    24 x    18 x    18 =        7776
InitMesh: Mesh cutoff (required, used) =   100.000   108.450 Ry
ExtMesh (bp) on 0 =    60 x    45 x    41 =      110700
New grid distribution:   2
           1       8:   24    6:   18    1:    6
           2       8:   24    1:    5    7:   18
           3       8:   24    1:    5    1:    6
           4       1:    7    1:    5    7:   18
           5       1:    7    6:   18    1:    6
           6       8:   24    6:   18    7:   18
           7       1:    7    6:   18    7:   18
           8       1:    7    1:    5    1:    6
New grid distribution:   3
           1      11:   24    7:   18    1:    8
           2       1:   10    7:   18    1:    8
           3      11:   24    1:    6    9:   18
           4       1:   10    1:    6    9:   18
           5      11:   24    1:    6    1:    8
           6       1:   10    1:    6    1:    8
           7      11:   24    7:   18    9:   18
           8       1:   10    7:   18    9:   18
Setting up quadratic distribution...
ExtMesh (bp) on 0 =    53 x    49 x    42 =      109074
PhiOnMesh: Number of (b)points on node 0 =                 1326
PhiOnMesh: nlist on node 0 =                 5367

        iscf     Eharris(eV)        E_KS(eV)     FreeEng(eV)     dDmax    Ef(eV) dHmax(eV)
   scf:    1     -465.787720     -465.807450     -465.807450  0.115954 -2.327002  1.004307
   scf:    2     -465.626913     -465.765036     -465.765036  0.041849 -1.718963  1.732680
   scf:    3     -465.848380     -465.826566     -465.826566  0.025581 -2.107481  0.021189
   scf:    4     -465.826588     -465.826578     -465.826578  0.000599 -2.106080  0.011397
   scf:    5     -465.826594     -465.826586     -465.826586  0.000659 -2.105765  0.005797
   scf:    6     -465.826591     -465.826588     -465.826588  0.000462 -2.106089  0.002296
   scf:    7     -465.826589     -465.826589     -465.826589  0.000124 -2.106445  0.000811
   scf:    8     -465.826589     -465.826589     -465.826589  0.000044 -2.106732  0.000467

SCF Convergence by DM+H criterion
max |DM_out - DM_in|         :     0.0000440492
max |H_out - H_in|      (eV) :     0.0004673862
SCF cycle converged after 8 iterations

Using DM_out to compute the final energy and forces
No. of atoms with KB's overlaping orbs in proc 0. Max # of overlaps:       3      23

siesta: E_KS(eV) =             -465.8266

siesta: Atomic forces (eV/Ang):
----------------------------------------
   Tot    0.000000   -0.055900   -0.000000
----------------------------------------
   Max    0.757585
   Res    0.446687    sqrt( Sum f_i^2 / 3N )
----------------------------------------
   Max    0.757585    constrained

Stress-tensor-Voigt (kbar):       -7.20       -3.16       -1.00        0.00        0.00       -0.00
(Free)E + p*V (eV/cell)     -465.2705
Target enthalpy (eV/cell)     -465.8266

                     ====================================
                        LUA coord. step =      2
                     ====================================

outcell: Unit cell vectors (Ang):
        7.286412    0.000000    0.000000
        0.000000    5.746952    0.000000
        0.000000    0.000000    5.621012

outcell: Cell vector modules (Ang)   :    7.286412    5.746952    5.621012
outcell: Cell angles (23,13,12) (deg):     90.0000     90.0000     90.0000
outcell: Cell volume (Ang**3)        :    235.3780
<dSpData1D:S at geom step 2
  <sparsity:sparsity for geom step 2
    nrows_g=23 nrows=3 sparsity=.1304 nnzs=69, refcount: 7>
  <dData1D:(new from dSpData1D) n=69, refcount: 1>
refcount: 1>
new_DM -- step:     3
Re-using DM from previous geometries...
Number of DMs in history: 1
 DM extrapolation coefficients: 
1   1.00000
New DM after history re-use:
<dSpData2D:SpM extrapolated using coords
  <sparsity:sparsity for geom step 2
    nrows_g=23 nrows=3 sparsity=.1304 nnzs=69, refcount: 8>
  <dData2D:(temp array for extrapolation) n=69 m=1, refcount: 1>
refcount: 1>
No. of atoms with KB's overlaping orbs in proc 0. Max # of overlaps:       3      23
New grid distribution:   1
           1       1:   27    1:   12    1:    6
           2       1:   27    1:   12    7:   12
           3       1:   27    1:   12   13:   18
           4       1:   27    1:   12   19:   24
           5       1:   27   13:   24    1:    6
           6       1:   27   13:   24    7:   12
           7       1:   27   13:   24   13:   18
           8       1:   27   13:   24   19:   24

InitMesh: MESH =    54 x    48 x    48 =      124416
InitMesh: (bp) =    27 x    24 x    24 =       15552
InitMesh: Mesh cutoff (required, used) =   150.000   151.796 Ry
ExtMesh (bp) on 0 =    67 x    56 x    50 =      187600
New grid distribution:   2
           1       9:   27    8:   24    1:    8
           2       9:   27    1:    7    1:    8
           3       9:   27    1:    7    9:   24
           4       1:    8    1:    7    9:   24
           5       1:    8    8:   24    1:    8
           6       1:    8    1:    7    1:    8
           7       9:   27    8:   24    9:   24
           8       1:    8    8:   24    9:   24
New grid distribution:   3
           1      12:   27    9:   24    1:   10
           2      12:   27    1:    8    1:   10
           3      12:   27    1:    8   11:   24
           4       1:   11    1:    8   11:   24
           5       1:   11   10:   24    1:   10
           6       1:   11    1:    9    1:   10
           7      12:   27    9:   24   11:   24
           8       1:   11    9:   24   11:   24
Setting up quadratic distribution...
ExtMesh (bp) on 0 =    59 x    61 x    52 =      187148
PhiOnMesh: Number of (b)points on node 0 =                 2584
PhiOnMesh: nlist on node 0 =                 9987

        iscf     Eharris(eV)        E_KS(eV)     FreeEng(eV)     dDmax    Ef(eV) dHmax(eV)
   scf:    1     -465.807309     -465.807347     -465.807347  0.002461 -2.115251  0.034528
   scf:    2     -465.807120     -465.807294     -465.807294  0.001406 -2.136685  0.061366
   scf:    3     -465.807399     -465.807372     -465.807372  0.000890 -2.122925  0.000237
   scf:    4     -465.807372     -465.807372     -465.807372  0.000009 -2.122914  0.000172

SCF Convergence by DM+H criterion
max |DM_out - DM_in|         :     0.0000091245
max |H_out - H_in|      (eV) :     0.0001720543
SCF cycle converged after 4 iterations

Using DM_out to compute the final energy and forces
No. of atoms with KB's overlaping orbs in proc 0. Max # of overlaps:       3      23

siesta: E_KS(eV) =             -465.8074

siesta: Atomic forces (eV/Ang):
----------------------------------------
   Tot    0.000000   -0.004271   -0.000000
----------------------------------------
   Max    0.739307
   Res    0.441795    sqrt( Sum f_i^2 / 3N )
----------------------------------------
   Max    0.739307    constrained

Stress-tensor-Voigt (kbar):       -7.14       -2.66       -0.14        0.00        0.00        0.00
(Free)E + p*V (eV/cell)     -465.3205
Target enthalpy (eV/cell)     -465.8074

                     ====================================
                        LUA coord. step =      3
                     ====================================

outcell: Unit cell vectors (Ang):
        7.286412    0.000000    0.000000
        0.000000    5.746952    0.000000
        0.000000    0.000000    5.621012

outcell: Cell vector modules (Ang)   :    7.286412    5.746952    5.621012
outcell: Cell angles (23,13,12) (deg):     90.0000     90.0000     90.0000
outcell: Cell volume (Ang**3)        :    235.3780
<dSpData1D:S at geom step 3
  <sparsity:sparsity for geom step 3
    nrows_g=23 nrows=3 sparsity=.1304 nnzs=69, refcount: 7>
  <dData1D:(new from dSpData1D) n=69, refcount: 1>
refcount: 1>
new_DM -- step:     4
Re-using DM from previous geometries...
Number of DMs in history: 1
 DM extrapolation coefficients: 
1   1.00000
New DM after history re-use:
<dSpData2D:SpM extrapolated using coords
  <sparsity:sparsity for geom step 3
    nrows_g=23 nrows=3 sparsity=.1304 nnzs=69, refcount: 8>
  <dData2D:(temp array for extrapolation) n=69 m=1, refcount: 1>
refcount: 1>
No. of atoms with KB's overlaping orbs in proc 0. Max # of overlaps:       3      23
New grid distribution:   1
           1       1:   32    1:   13    1:    6
           2       1:   32    1:   13    7:   12
           3       1:   32    1:   13   13:   18
           4       1:   32    1:   13   19:   24
           5       1:   32   14:   25    1:    6
           6       1:   32   14:   25    7:   12
           7       1:   32   14:   25   13:   18
           8       1:   32   14:   25   19:   24

InitMesh: MESH =    64 x    50 x    48 =      153600
InitMesh: (bp) =    32 x    25 x    24 =       19200
InitMesh: Mesh cutoff (required, used) =   200.000   201.537 Ry
ExtMesh (bp) on 0 =    80 x    61 x    50 =      244000
New grid distribution:   2
           1      10:   32    8:   25    1:    8
           2      10:   32    1:    7    1:    9
           3      10:   32    1:    7   10:   24
           4       1:    9    1:    7   10:   24
           5       1:    9    8:   25    1:    8
           6       1:    9    1:    7    1:    9
           7      10:   32    8:   25    9:   24
           8       1:    9    8:   25    9:   24
New grid distribution:   3
           1      15:   32    1:    8    1:   10
           2       1:   14    1:    9   12:   24
           3       1:   14   10:   25   10:   24
           4      15:   32    1:    8   11:   24
           5      15:   32    9:   25    1:    9
           6       1:   14   10:   25    1:    9
           7      15:   32    9:   25   10:   24
           8       1:   14    1:    9    1:   11
Setting up quadratic distribution...
ExtMesh (bp) on 0 =    71 x    66 x    52 =      243672
PhiOnMesh: Number of (b)points on node 0 =                 3312
PhiOnMesh: nlist on node 0 =                12745

        iscf     Eharris(eV)        E_KS(eV)     FreeEng(eV)     dDmax    Ef(eV) dHmax(eV)
   scf:    1     -465.806793     -465.806793     -465.806793  0.000167 -2.124498  0.001301
   scf:    2     -465.806792     -465.806793     -465.806793  0.000048 -2.125185  0.002481
   scf:    3     -465.806793     -465.806793     -465.806793  0.000032 -2.124715  0.000090

SCF Convergence by DM+H criterion
max |DM_out - DM_in|         :     0.0000319286
max |H_out - H_in|      (eV) :     0.0000897398
SCF cycle converged after 3 iterations

Using DM_out to compute the final energy and forces
No. of atoms with KB's overlaping orbs in proc 0. Max # of overlaps:       3      23

siesta: E_KS(eV) =             -465.8068

siesta: Atomic forces (eV/Ang):
----------------------------------------
   Tot    0.000000    0.001834   -0.000000
----------------------------------------
   Max    0.736623
   Res    0.442831    sqrt( Sum f_i^2 / 3N )
----------------------------------------
   Max    0.736623    constrained

Stress-tensor-Voigt (kbar):       -7.14       -2.63       -0.15        0.00        0.00       -0.00
(Free)E + p*V (eV/cell)     -465.3210
Target enthalpy (eV/cell)     -465.8068

                     ====================================
                        LUA coord. step =      4
                     ====================================

outcell: Unit cell vectors (Ang):
        7.286412    0.000000    0.000000
        0.000000    5.746952    0.000000
        0.000000    0.000000    5.621012

outcell: Cell vector modules (Ang)   :    7.286412    5.746952    5.621012
outcell: Cell angles (23,13,12) (deg):     90.0000     90.0000     90.0000
outcell: Cell volume (Ang**3)        :    235.3780
<dSpData1D:S at geom step 4
  <sparsity:sparsity for geom step 4
    nrows_g=23 nrows=3 sparsity=.1304 nnzs=69, refcount: 7>
  <dData1D:(new from dSpData1D) n=69, refcount: 1>
refcount: 1>
new_DM -- step:     5
Re-using DM from previous geometries...
Number of DMs in history: 1
 DM extrapolation coefficients: 
1   1.00000
New DM after history re-use:
<dSpData2D:SpM extrapolated using coords
  <sparsity:sparsity for geom step 4
    nrows_g=23 nrows=3 sparsity=.1304 nnzs=69, refcount: 8>
  <dData2D:(temp array for extrapolation) n=69 m=1, refcount: 1>
refcount: 1>
No. of atoms with KB's overlaping orbs in proc 0. Max # of overlaps:       3      23
New grid distribution:   1
           1       1:   36    1:   15    1:    7
           2       1:   36    1:   15    8:   14
           3       1:   36    1:   15   15:   21
           4       1:   36    1:   15   22:   27
           5       1:   36   16:   30    1:    7
           6       1:   36   16:   30    8:   14
           7       1:   36   16:   30   15:   21
           8       1:   36   16:   30   22:   27

InitMesh: MESH =    72 x    60 x    54 =      233280
InitMesh: (bp) =    36 x    30 x    27 =       29160
InitMesh: Mesh cutoff (required, used) =   250.000   255.070 Ry
ExtMesh (bp) on 0 =    88 x    71 x    59 =      368632
New grid distribution:   2
           1      12:   36   10:   30    1:    9
           2      12:   36    1:    9    1:   10
           3      12:   36    1:    9   11:   27
           4       1:   11    1:    9   11:   27
           5       1:   11   10:   30    1:    9
           6       1:   11    1:    9    1:   10
           7      12:   36   10:   30   10:   27
           8       1:   11   10:   30   10:   27
New grid distribution:   3
           1      16:   36    1:   10    1:   12
           2       1:   15    1:   10   13:   27
           3       1:   15   11:   30   11:   27
           4      16:   36    1:   10   13:   27
           5      16:   36   11:   30    1:   10
           6       1:   15   11:   30    1:   10
           7      16:   36   11:   30   11:   27
           8       1:   15    1:   10    1:   12
Setting up quadratic distribution...
ExtMesh (bp) on 0 =    77 x    77 x    61 =      361669
PhiOnMesh: Number of (b)points on node 0 =                 4725
PhiOnMesh: nlist on node 0 =                17810

        iscf     Eharris(eV)        E_KS(eV)     FreeEng(eV)     dDmax    Ef(eV) dHmax(eV)
   scf:    1     -465.806329     -465.806329     -465.806329  0.000086 -2.125533  0.000846

SCF Convergence by DM+H criterion
max |DM_out - DM_in|         :     0.0000859975
max |H_out - H_in|      (eV) :     0.0008461188
SCF cycle converged after 1 iterations

Using DM_out to compute the final energy and forces
No. of atoms with KB's overlaping orbs in proc 0. Max # of overlaps:       3      23

siesta: E_KS(eV) =             -465.8063

siesta: Atomic forces (eV/Ang):
----------------------------------------
   Tot    0.000000   -0.000725   -0.000000
----------------------------------------
   Max    0.735510
   Res    0.442409    sqrt( Sum f_i^2 / 3N )
----------------------------------------
   Max    0.735510    constrained

Stress-tensor-Voigt (kbar):       -7.18       -2.64       -0.13        0.00        0.00       -0.00
(Free)E + p*V (eV/cell)     -465.3191
Target enthalpy (eV/cell)     -465.8063

                     ====================================
                        LUA coord. step =      5
                     ====================================

outcell: Unit cell vectors (Ang):
        7.286412    0.000000    0.000000
        0.000000    5.746952    0.000000
        0.000000    0.000000    5.621012

outcell: Cell vector modules (Ang)   :    7.286412    5.746952    5.621012
outcell: Cell angles (23,13,12) (deg):     90.0000     90.0000     90.0000
outcell: Cell volume (Ang**3)        :    235.3780
<dSpData1D:S at geom step 5
  <sparsity:sparsity for geom step 5
    nrows_g=23 nrows=3 sparsity=.1304 nnzs=69, refcount: 7>
  <dData1D:(new from dSpData1D) n=69, refcount: 1>
refcount: 1>
new_DM -- step:     6
Re-using DM from previous geometries...
Number of DMs in history: 1
 DM extrapolation coefficients: 
1   1.00000
New DM after history re-use:
<dSpData2D:SpM extrapolated using coords
  <sparsity:sparsity for geom step 5
    nrows_g=23 nrows=3 sparsity=.1304 nnzs=69, refcount: 8>
  <dData2D:(temp array for extrapolation) n=69 m=1, refcount: 1>
refcount: 1>
No. of atoms with KB's overlaping orbs in proc 0. Max # of overlaps:       3      23
New grid distribution:   1
           1       1:   40    1:   15    1:    8
           2       1:   40    1:   15    9:   16
           3       1:   40    1:   15   17:   23
           4       1:   40    1:   15   24:   30
           5       1:   40   16:   30    1:    8
           6       1:   40   16:   30    9:   16
           7       1:   40   16:   30   17:   23
           8       1:   40   16:   30   24:   30

InitMesh: MESH =    80 x    60 x    60 =      288000
InitMesh: (bp) =    40 x    30 x    30 =       36000
InitMesh: Mesh cutoff (required, used) =   300.000   301.251 Ry
ExtMesh (bp) on 0 =   100 x    71 x    64 =      454400
New grid distribution:   2
           1      13:   40   10:   30    1:   11
           2      13:   40    1:    9    1:   11
           3      13:   40    1:    9   12:   30
           4       1:   12    1:    9   12:   30
           5       1:   12   10:   30    1:   11
           6       1:   12    1:    9    1:   11
           7      13:   40   10:   30   12:   30
           8       1:   12   10:   30   12:   30
New grid distribution:   3
           1      18:   40   11:   30    1:   13
           2       1:   17   11:   30    1:   13
           3      18:   40    1:   10   14:   30
           4       1:   17    1:   10   14:   30
           5      18:   40    1:   10    1:   13
           6       1:   17    1:   10    1:   13
           7      18:   40   11:   30   14:   30
           8       1:   17   11:   30   14:   30
Setting up quadratic distribution...
ExtMesh (bp) on 0 =    88 x    77 x    67 =      453992
PhiOnMesh: Number of (b)points on node 0 =                 6468
PhiOnMesh: nlist on node 0 =                22605

        iscf     Eharris(eV)        E_KS(eV)     FreeEng(eV)     dDmax    Ef(eV) dHmax(eV)
   scf:    1     -465.806142     -465.806142     -465.806142  0.000024 -2.126253  0.001280
   scf:    2     -465.806142     -465.806142     -465.806142  0.000047 -2.125437  0.002287
   scf:    3     -465.806142     -465.806142     -465.806142  0.000030 -2.125957  0.000008

SCF Convergence by DM+H criterion
max |DM_out - DM_in|         :     0.0000302831
max |H_out - H_in|      (eV) :     0.0000078740
SCF cycle converged after 3 iterations

Using DM_out to compute the final energy and forces
No. of atoms with KB's overlaping orbs in proc 0. Max # of overlaps:       3      23

siesta: E_KS(eV) =             -465.8061

siesta: Atomic forces (eV/Ang):
----------------------------------------
   Tot   -0.000000   -0.000159   -0.000000
----------------------------------------
   Max    0.734665
   Res    0.442783    sqrt( Sum f_i^2 / 3N )
----------------------------------------
   Max    0.734665    constrained

Stress-tensor-Voigt (kbar):       -7.17       -2.63       -0.11        0.00        0.00        0.00
(Free)E + p*V (eV/cell)     -465.3207
Target enthalpy (eV/cell)     -465.8061

                     ====================================
                        LUA coord. step =      6
                     ====================================

outcell: Unit cell vectors (Ang):
        7.286412    0.000000    0.000000
        0.000000    5.746952    0.000000
        0.000000    0.000000    5.621012

outcell: Cell vector modules (Ang)   :    7.286412    5.746952    5.621012
outcell: Cell angles (23,13,12) (deg):     90.0000     90.0000     90.0000
outcell: Cell volume (Ang**3)        :    235.3780
<dSpData1D:S at geom step 6
  <sparsity:sparsity for geom step 6
    nrows_g=23 nrows=3 sparsity=.1304 nnzs=69, refcount: 7>
  <dData1D:(new from dSpData1D) n=69, refcount: 1>
refcount: 1>
new_DM -- step:     7
Re-using DM from previous geometries...
Number of DMs in history: 1
 DM extrapolation coefficients: 
1   1.00000
New DM after history re-use:
<dSpData2D:SpM extrapolated using coords
  <sparsity:sparsity for geom step 6
    nrows_g=23 nrows=3 sparsity=.1304 nnzs=69, refcount: 8>
  <dData2D:(temp array for extrapolation) n=69 m=1, refcount: 1>
refcount: 1>
No. of atoms with KB's overlaping orbs in proc 0. Max # of overlaps:       3      23
New grid distribution:   1
           1       1:   45    1:   18    1:    8
           2       1:   45    1:   18    9:   16
           3       1:   45    1:   18   17:   24
           4       1:   45    1:   18   25:   32
           5       1:   45   19:   36    1:    8
           6       1:   45   19:   36    9:   16
           7       1:   45   19:   36   17:   24
           8       1:   45   19:   36   25:   32

InitMesh: MESH =    90 x    72 x    64 =      414720
InitMesh: (bp) =    45 x    36 x    32 =       51840
InitMesh: Mesh cutoff (required, used) =   350.000   358.288 Ry
ExtMesh (bp) on 0 =   109 x    86 x    68 =      637432
New grid distribution:   2
           1      15:   45   11:   36    1:   11
           2      15:   45    1:   10    1:   12
           3      15:   45    1:   10   13:   32
           4       1:   14    1:   11   13:   32
           5       1:   14   12:   36    1:   11
           6       1:   14    1:   11    1:   12
           7      15:   45   11:   36   12:   32
           8       1:   14   12:   36   12:   32
New grid distribution:   3
           1      20:   45    1:   12    1:   14
           2       1:   19    1:   12   15:   32
           3       1:   19   13:   36   13:   32
           4      20:   45    1:   12   15:   32
           5      20:   45   13:   36    1:   12
           6       1:   19   13:   36    1:   12
           7      20:   45   13:   36   13:   32
           8       1:   19    1:   12    1:   14
Setting up quadratic distribution...
ExtMesh (bp) on 0 =    95 x    94 x    71 =      634030
PhiOnMesh: Number of (b)points on node 0 =                 8866
PhiOnMesh: nlist on node 0 =                32882

        iscf     Eharris(eV)        E_KS(eV)     FreeEng(eV)     dDmax    Ef(eV) dHmax(eV)
   scf:    1     -465.805997     -465.805997     -465.805997  0.000056 -2.125999  0.000189

SCF Convergence by DM+H criterion
max |DM_out - DM_in|         :     0.0000559312
max |H_out - H_in|      (eV) :     0.0001893603
SCF cycle converged after 1 iterations

Using DM_out to compute the final energy and forces
No. of atoms with KB's overlaping orbs in proc 0. Max # of overlaps:       3      23

siesta: E_KS(eV) =             -465.8060

siesta: Atomic forces (eV/Ang):
----------------------------------------
   Tot   -0.000000   -0.000008   -0.000000
----------------------------------------
   Max    0.732652
   Res    0.442453    sqrt( Sum f_i^2 / 3N )
----------------------------------------
   Max    0.732652    constrained

Stress-tensor-Voigt (kbar):       -7.16       -2.62       -0.11        0.00        0.00       -0.00
(Free)E + p*V (eV/cell)     -465.3218
Target enthalpy (eV/cell)     -465.8060

                     ====================================
                        LUA coord. step =      7
                     ====================================

outcell: Unit cell vectors (Ang):
        7.286412    0.000000    0.000000
        0.000000    5.746952    0.000000
        0.000000    0.000000    5.621012

outcell: Cell vector modules (Ang)   :    7.286412    5.746952    5.621012
outcell: Cell angles (23,13,12) (deg):     90.0000     90.0000     90.0000
outcell: Cell volume (Ang**3)        :    235.3780
<dSpData1D:S at geom step 7
  <sparsity:sparsity for geom step 7
    nrows_g=23 nrows=3 sparsity=.1304 nnzs=69, refcount: 7>
  <dData1D:(new from dSpData1D) n=69, refcount: 1>
refcount: 1>
new_DM -- step:     8
Re-using DM from previous geometries...
Number of DMs in history: 1
 DM extrapolation coefficients: 
1   1.00000
New DM after history re-use:
<dSpData2D:SpM extrapolated using coords
  <sparsity:sparsity for geom step 7
    nrows_g=23 nrows=3 sparsity=.1304 nnzs=69, refcount: 8>
  <dData2D:(temp array for extrapolation) n=69 m=1, refcount: 1>
refcount: 1>
No. of atoms with KB's overlaping orbs in proc 0. Max # of overlaps:       3      23
New grid distribution:   1
           1       1:   45    1:   18    1:    9
           2       1:   45    1:   18   10:   18
           3       1:   45    1:   18   19:   27
           4       1:   45    1:   18   28:   36
           5       1:   45   19:   36    1:    9
           6       1:   45   19:   36   10:   18
           7       1:   45   19:   36   19:   27
           8       1:   45   19:   36   28:   36

InitMesh: MESH =    90 x    72 x    72 =      466560
InitMesh: (bp) =    45 x    36 x    36 =       58320
InitMesh: Mesh cutoff (required, used) =   400.000   421.657 Ry
ExtMesh (bp) on 0 =   109 x    86 x    77 =      721798
New grid distribution:   2
           1      15:   45   11:   36    1:   13
           2      15:   45    1:   10    1:   13
           3      15:   45    1:   10   14:   36
           4       1:   14    1:   10   14:   36
           5       1:   14   12:   36    1:   13
           6       1:   14    1:   11    1:   13
           7      15:   45   11:   36   14:   36
           8       1:   14   11:   36   14:   36
New grid distribution:   3
           1       1:   19   14:   36    1:   15
           2      20:   45    1:   12    1:   15
           3       1:   19   13:   36   16:   36
           4      20:   45    1:   12   16:   36
           5      20:   45   13:   36    1:   15
           6       1:   19    1:   12   16:   36
           7      20:   45   13:   36   16:   36
           8       1:   19    1:   13    1:   15
Setting up quadratic distribution...
ExtMesh (bp) on 0 =    95 x    94 x    81 =      723330
PhiOnMesh: Number of (b)points on node 0 =                10478
PhiOnMesh: nlist on node 0 =                37347

        iscf     Eharris(eV)        E_KS(eV)     FreeEng(eV)     dDmax    Ef(eV) dHmax(eV)
   scf:    1     -465.805963     -465.805963     -465.805963  0.000014 -2.126141  0.000251

SCF Convergence by DM+H criterion
max |DM_out - DM_in|         :     0.0000137607
max |H_out - H_in|      (eV) :     0.0002507814
SCF cycle converged after 1 iterations

Using DM_out to compute the final energy and forces
No. of atoms with KB's overlaping orbs in proc 0. Max # of overlaps:       3      23

siesta: E_KS(eV) =             -465.8060

siesta: Atomic forces (eV/Ang):
----------------------------------------
   Tot    0.000000   -0.000010    0.000000
----------------------------------------
   Max    0.732900
   Res    0.442540    sqrt( Sum f_i^2 / 3N )
----------------------------------------
   Max    0.732900    constrained

Stress-tensor-Voigt (kbar):       -7.16       -2.62       -0.11        0.00        0.00        0.00
(Free)E + p*V (eV/cell)     -465.3218
Target enthalpy (eV/cell)     -465.8060

                     ====================================
                        LUA coord. step =      8
                     ====================================

outcell: Unit cell vectors (Ang):
        7.286412    0.000000    0.000000
        0.000000    5.746952    0.000000
        0.000000    0.000000    5.621012

outcell: Cell vector modules (Ang)   :    7.286412    5.746952    5.621012
outcell: Cell angles (23,13,12) (deg):     90.0000     90.0000     90.0000
outcell: Cell volume (Ang**3)        :    235.3780
<dSpData1D:S at geom step 8
  <sparsity:sparsity for geom step 8
    nrows_g=23 nrows=3 sparsity=.1304 nnzs=69, refcount: 7>
  <dData1D:(new from dSpData1D) n=69, refcount: 1>
refcount: 1>
new_DM -- step:     9
Re-using DM from previous geometries...
Number of DMs in history: 1
 DM extrapolation coefficients: 
1   1.00000
New DM after history re-use:
<dSpData2D:SpM extrapolated using coords
  <sparsity:sparsity for geom step 8
    nrows_g=23 nrows=3 sparsity=.1304 nnzs=69, refcount: 8>
  <dData2D:(temp array for extrapolation) n=69 m=1, refcount: 1>
refcount: 1>
No. of atoms with KB's overlaping orbs in proc 0. Max # of overlaps:       3      23
New grid distribution:   1
           1       1:   48    1:   20    1:    9
           2       1:   48    1:   20   10:   18
           3       1:   48    1:   20   19:   27
           4       1:   48    1:   20   28:   36
           5       1:   48   21:   40    1:    9
           6       1:   48   21:   40   10:   18
           7       1:   48   21:   40   19:   27
           8       1:   48   21:   40   28:   36

InitMesh: MESH =    96 x    80 x    72 =      552960
InitMesh: (bp) =    48 x    40 x    36 =       69120
InitMesh: Mesh cutoff (required, used) =   450.000   453.459 Ry
ExtMesh (bp) on 0 =   116 x    92 x    77 =      821744
New grid distribution:   2
           1      16:   48   13:   40    1:   12
           2      16:   48    1:   12    1:   13
           3      16:   48    1:   12   14:   36
           4       1:   15    1:   12   14:   36
           5       1:   15   13:   40    1:   12
           6       1:   15    1:   12    1:   13
           7      16:   48   13:   40   13:   36
           8       1:   15   13:   40   13:   36
New grid distribution:   3
           1      21:   48    1:   13    1:   16
           2       1:   20    1:   14   17:   36
           3       1:   20   15:   40   15:   36
           4      21:   48    1:   13   17:   36
           5      21:   48   14:   40    1:   14
           6       1:   20   15:   40    1:   14
           7      21:   48   14:   40   15:   36
           8       1:   20    1:   14    1:   16
Setting up quadratic distribution...
ExtMesh (bp) on 0 =   101 x   100 x    80 =      808000
PhiOnMesh: Number of (b)points on node 0 =                11088
PhiOnMesh: nlist on node 0 =                40849

        iscf     Eharris(eV)        E_KS(eV)     FreeEng(eV)     dDmax    Ef(eV) dHmax(eV)
   scf:    1     -465.805929     -465.805929     -465.805929  0.000029 -2.125977  0.000458

SCF Convergence by DM+H criterion
max |DM_out - DM_in|         :     0.0000293607
max |H_out - H_in|      (eV) :     0.0004581029
SCF cycle converged after 1 iterations

Using DM_out to compute the final energy and forces
No. of atoms with KB's overlaping orbs in proc 0. Max # of overlaps:       3      23

siesta: E_KS(eV) =             -465.8059

siesta: Atomic forces (eV/Ang):
----------------------------------------
   Tot   -0.000000    0.001348    0.000000
----------------------------------------
   Max    0.733216
   Res    0.443440    sqrt( Sum f_i^2 / 3N )
----------------------------------------
   Max    0.733216    constrained

Stress-tensor-Voigt (kbar):       -7.16       -2.63       -0.11        0.00        0.00        0.00
(Free)E + p*V (eV/cell)     -465.3213
Target enthalpy (eV/cell)     -465.8059

                     ====================================
                        LUA coord. step =      9
                     ====================================

outcell: Unit cell vectors (Ang):
        7.286412    0.000000    0.000000
        0.000000    5.746952    0.000000
        0.000000    0.000000    5.621012

outcell: Cell vector modules (Ang)   :    7.286412    5.746952    5.621012
outcell: Cell angles (23,13,12) (deg):     90.0000     90.0000     90.0000
outcell: Cell volume (Ang**3)        :    235.3780
<dSpData1D:S at geom step 9
  <sparsity:sparsity for geom step 9
    nrows_g=23 nrows=3 sparsity=.1304 nnzs=69, refcount: 7>
  <dData1D:(new from dSpData1D) n=69, refcount: 1>
refcount: 1>
new_DM -- step:    10
Re-using DM from previous geometries...
Number of DMs in history: 1
 DM extrapolation coefficients: 
1   1.00000
New DM after history re-use:
<dSpData2D:SpM extrapolated using coords
  <sparsity:sparsity for geom step 9
    nrows_g=23 nrows=3 sparsity=.1304 nnzs=69, refcount: 8>
  <dData2D:(temp array for extrapolation) n=69 m=1, refcount: 1>
refcount: 1>
No. of atoms with KB's overlaping orbs in proc 0. Max # of overlaps:       3      23
New grid distribution:   1
           1       1:   50    1:   20    1:   10
           2       1:   50    1:   20   11:   20
           3       1:   50    1:   20   21:   30
           4       1:   50    1:   20   31:   40
           5       1:   50   21:   40    1:   10
           6       1:   50   21:   40   11:   20
           7       1:   50   21:   40   21:   30
           8       1:   50   21:   40   31:   40

InitMesh: MESH =   100 x    80 x    80 =      640000
InitMesh: (bp) =    50 x    40 x    40 =       80000
InitMesh: Mesh cutoff (required, used) =   500.000   520.564 Ry
ExtMesh (bp) on 0 =   122 x    92 x    86 =      965264
New grid distribution:   2
           1      17:   50   13:   40    1:   14
           2      17:   50    1:   12    1:   14
           3      17:   50    1:   11   15:   40
           4       1:   16    1:   11   15:   40
           5       1:   16   13:   40    1:   14
           6       1:   16    1:   12    1:   14
           7      17:   50   12:   40   15:   40
           8       1:   16   12:   40   15:   40
New grid distribution:   3
           1      22:   50   14:   40    1:   17
           2       1:   21   15:   40    1:   17
           3      22:   50    1:   13   18:   40
           4       1:   21    1:   13   18:   40
           5      22:   50    1:   13    1:   17
           6       1:   21    1:   14    1:   17
           7      22:   50   14:   40   18:   40
           8       1:   21   14:   40   18:   40
Setting up quadratic distribution...
ExtMesh (bp) on 0 =   106 x   100 x    90 =      954000
PhiOnMesh: Number of (b)points on node 0 =                13328
PhiOnMesh: nlist on node 0 =                47541

        iscf     Eharris(eV)        E_KS(eV)     FreeEng(eV)     dDmax    Ef(eV) dHmax(eV)
   scf:    1     -465.805913     -465.805913     -465.805913  0.000019 -2.126296  0.000773

SCF Convergence by DM+H criterion
max |DM_out - DM_in|         :     0.0000186353
max |H_out - H_in|      (eV) :     0.0007725285
SCF cycle converged after 1 iterations

Using DM_out to compute the final energy and forces
No. of atoms with KB's overlaping orbs in proc 0. Max # of overlaps:       3      23

siesta: E_KS(eV) =             -465.8059

siesta: Atomic forces (eV/Ang):
----------------------------------------
   Tot    0.000000    0.000002    0.000000
----------------------------------------
   Max    0.734267
   Res    0.442967    sqrt( Sum f_i^2 / 3N )
----------------------------------------
   Max    0.734267    constrained

Stress-tensor-Voigt (kbar):       -7.17       -2.63       -0.11        0.00        0.00        0.00
(Free)E + p*V (eV/cell)     -465.3208
Target enthalpy (eV/cell)     -465.8059

                     ====================================
                        LUA coord. step =     10
                     ====================================

outcell: Unit cell vectors (Ang):
        7.286412    0.000000    0.000000
        0.000000    5.746952    0.000000
        0.000000    0.000000    5.621012

outcell: Cell vector modules (Ang)   :    7.286412    5.746952    5.621012
outcell: Cell angles (23,13,12) (deg):     90.0000     90.0000     90.0000
outcell: Cell volume (Ang**3)        :    235.3780
<dSpData1D:S at geom step 10
  <sparsity:sparsity for geom step 10
    nrows_g=23 nrows=3 sparsity=.1304 nnzs=69, refcount: 7>
  <dData1D:(new from dSpData1D) n=69, refcount: 1>
refcount: 1>
new_DM -- step:    11
Re-using DM from previous geometries...
Number of DMs in history: 1
 DM extrapolation coefficients: 
1   1.00000
New DM after history re-use:
<dSpData2D:SpM extrapolated using coords
  <sparsity:sparsity for geom step 10
    nrows_g=23 nrows=3 sparsity=.1304 nnzs=69, refcount: 8>
  <dData2D:(temp array for extrapolation) n=69 m=1, refcount: 1>
refcount: 1>
No. of atoms with KB's overlaping orbs in proc 0. Max # of overlaps:       3      23
New grid distribution:   1
           1       1:   54    1:   23    1:   10
           2       1:   54    1:   23   11:   20
           3       1:   54    1:   23   21:   30
           4       1:   54    1:   23   31:   40
           5       1:   54   24:   45    1:   10
           6       1:   54   24:   45   11:   20
           7       1:   54   24:   45   21:   30
           8       1:   54   24:   45   31:   40

InitMesh: MESH =   108 x    90 x    80 =      777600
InitMesh: (bp) =    54 x    45 x    40 =       97200
InitMesh: Mesh cutoff (required, used) =   550.000   559.825 Ry
ExtMesh (bp) on 0 =   130 x   107 x    86 =     1196260
New grid distribution:   2
           1      18:   54   14:   45    1:   14
           2      18:   54    1:   13    1:   15
           3      18:   54    1:   13   16:   40
           4       1:   17    1:   13   16:   40
           5       1:   17   14:   45    1:   14
           6       1:   17    1:   13    1:   15
           7      18:   54   14:   45   15:   40
           8       1:   17   14:   45   15:   40
New grid distribution:   3
           1       1:   23   16:   45    1:   16
           2       1:   23    1:   15   19:   40
           3       1:   23   16:   45   17:   40
           4      24:   54    1:   15   19:   40
           5      24:   54   16:   45    1:   16
           6      24:   54    1:   15    1:   18
           7      24:   54   16:   45   17:   40
           8       1:   23    1:   15    1:   18
Setting up quadratic distribution...
ExtMesh (bp) on 0 =   113 x   116 x    90 =     1179720
PhiOnMesh: Number of (b)points on node 0 =                16576
PhiOnMesh: nlist on node 0 =                59177

        iscf     Eharris(eV)        E_KS(eV)     FreeEng(eV)     dDmax    Ef(eV) dHmax(eV)
   scf:    1     -465.805936     -465.805936     -465.805936  0.000028 -2.125800  0.001375
   scf:    2     -465.805936     -465.805936     -465.805936  0.000053 -2.126659  0.002448
   scf:    3     -465.805936     -465.805936     -465.805936  0.000034 -2.126108  0.000003

SCF Convergence by DM+H criterion
max |DM_out - DM_in|         :     0.0000336881
max |H_out - H_in|      (eV) :     0.0000030935
SCF cycle converged after 3 iterations

Using DM_out to compute the final energy and forces
No. of atoms with KB's overlaping orbs in proc 0. Max # of overlaps:       3      23

siesta: E_KS(eV) =             -465.8059

siesta: Atomic forces (eV/Ang):
----------------------------------------
   Tot    0.000000   -0.000749    0.000000
----------------------------------------
   Max    0.734422
   Res    0.443125    sqrt( Sum f_i^2 / 3N )
----------------------------------------
   Max    0.734422    constrained

Stress-tensor-Voigt (kbar):       -7.17       -2.64       -0.11        0.00        0.00        0.00
(Free)E + p*V (eV/cell)     -465.3207
Target enthalpy (eV/cell)     -465.8059

                     ====================================
                        LUA coord. step =     11
                     ====================================

outcell: Unit cell vectors (Ang):
        7.286412    0.000000    0.000000
        0.000000    5.746952    0.000000
        0.000000    0.000000    5.621012

outcell: Cell vector modules (Ang)   :    7.286412    5.746952    5.621012
outcell: Cell angles (23,13,12) (deg):     90.0000     90.0000     90.0000
outcell: Cell volume (Ang**3)        :    235.3780
<dSpData1D:S at geom step 11
  <sparsity:sparsity for geom step 11
    nrows_g=23 nrows=3 sparsity=.1304 nnzs=69, refcount: 7>
  <dData1D:(new from dSpData1D) n=69, refcount: 1>
refcount: 1>
new_DM -- step:    12
Re-using DM from previous geometries...
Number of DMs in history: 1
 DM extrapolation coefficients: 
1   1.00000
New DM after history re-use:
<dSpData2D:SpM extrapolated using coords
  <sparsity:sparsity for geom step 11
    nrows_g=23 nrows=3 sparsity=.1304 nnzs=69, refcount: 8>
  <dData2D:(temp array for extrapolation) n=69 m=1, refcount: 1>
refcount: 1>
No. of atoms with KB's overlaping orbs in proc 0. Max # of overlaps:       3      23
New grid distribution:   1
           1       1:   54    1:   23    1:   12
           2       1:   54    1:   23   13:   23
           3       1:   54    1:   23   24:   34
           4       1:   54    1:   23   35:   45
           5       1:   54   24:   45    1:   12
           6       1:   54   24:   45   13:   23
           7       1:   54   24:   45   24:   34
           8       1:   54   24:   45   35:   45

InitMesh: MESH =   108 x    90 x    90 =      874800
InitMesh: (bp) =    54 x    45 x    45 =      109350
InitMesh: Mesh cutoff (required, used) =   600.000   607.186 Ry
ExtMesh (bp) on 0 =   130 x   107 x    96 =     1335360
New grid distribution:   2
           1      18:   54   14:   45    1:   16
           2      18:   54    1:   13    1:   16
           3      18:   54    1:   13   17:   45
           4       1:   17    1:   13   17:   45
           5       1:   17   14:   45    1:   16
           6       1:   17    1:   13    1:   16
           7      18:   54   14:   45   17:   45
           8       1:   17   14:   45   17:   45
New grid distribution:   3
           1       1:   23   17:   45    1:   19
           2      24:   54    1:   15    1:   19
           3       1:   23   16:   45   20:   45
           4      24:   54    1:   15   20:   45
           5      24:   54   16:   45    1:   19
           6       1:   23    1:   15   20:   45
           7      24:   54   16:   45   20:   45
           8       1:   23    1:   16    1:   19
Setting up quadratic distribution...
ExtMesh (bp) on 0 =   113 x   116 x   100 =     1310800
PhiOnMesh: Number of (b)points on node 0 =                18944
PhiOnMesh: nlist on node 0 =                66585

        iscf     Eharris(eV)        E_KS(eV)     FreeEng(eV)     dDmax    Ef(eV) dHmax(eV)
   scf:    1     -465.805930     -465.805930     -465.805930  0.000004 -2.126114  0.000005

SCF Convergence by DM+H criterion
max |DM_out - DM_in|         :     0.0000039602
max |H_out - H_in|      (eV) :     0.0000053367
SCF cycle converged after 1 iterations

Using DM_out to compute the final energy and forces
No. of atoms with KB's overlaping orbs in proc 0. Max # of overlaps:       3      23

siesta: E_KS(eV) =             -465.8059

siesta: Atomic forces (eV/Ang):
----------------------------------------
   Tot    0.000000    0.000335    0.000000
----------------------------------------
   Max    0.733338
   Res    0.442913    sqrt( Sum f_i^2 / 3N )
----------------------------------------
   Max    0.733338    constrained

Stress-tensor-Voigt (kbar):       -7.16       -2.63       -0.10        0.00        0.00       -0.00
(Free)E + p*V (eV/cell)     -465.3215
Target enthalpy (eV/cell)     -465.8059

                     ====================================
                        LUA coord. step =     12
                     ====================================

outcell: Unit cell vectors (Ang):
        7.286412    0.000000    0.000000
        0.000000    5.746952    0.000000
        0.000000    0.000000    5.621012

outcell: Cell vector modules (Ang)   :    7.286412    5.746952    5.621012
outcell: Cell angles (23,13,12) (deg):     90.0000     90.0000     90.0000
outcell: Cell volume (Ang**3)        :    235.3780
<dSpData1D:S at geom step 12
  <sparsity:sparsity for geom step 12
    nrows_g=23 nrows=3 sparsity=.1304 nnzs=69, refcount: 7>
  <dData1D:(new from dSpData1D) n=69, refcount: 1>
refcount: 1>
new_DM -- step:    13
Re-using DM from previous geometries...
Number of DMs in history: 1
 DM extrapolation coefficients: 
1   1.00000
New DM after history re-use:
<dSpData2D:SpM extrapolated using coords
  <sparsity:sparsity for geom step 12
    nrows_g=23 nrows=3 sparsity=.1304 nnzs=69, refcount: 8>
  <dData2D:(temp array for extrapolation) n=69 m=1, refcount: 1>
refcount: 1>
No. of atoms with KB's overlaping orbs in proc 0. Max # of overlaps:       3      23
New grid distribution:   1
           1       1:   60    1:   23    1:   12
           2       1:   60    1:   23   13:   23
           3       1:   60    1:   23   24:   34
           4       1:   60    1:   23   35:   45
           5       1:   60   24:   45    1:   12
           6       1:   60   24:   45   13:   23
           7       1:   60   24:   45   24:   34
           8       1:   60   24:   45   35:   45

InitMesh: MESH =   120 x    90 x    90 =      972000
InitMesh: (bp) =    60 x    45 x    45 =      121500
InitMesh: Mesh cutoff (required, used) =   650.000   677.816 Ry
ExtMesh (bp) on 0 =   148 x   107 x    96 =     1520256
New grid distribution:   2
           1      21:   60   14:   45    1:   16
           2      21:   60    1:   13    1:   16
           3      21:   60    1:   13   17:   45
           4       1:   20    1:   13   17:   45
           5       1:   20   14:   45    1:   16
           6       1:   20    1:   13    1:   16
           7      21:   60   14:   45   17:   45
           8       1:   20   14:   45   17:   45
New grid distribution:   3
           1       1:   26   17:   45    1:   19
           2      27:   60    1:   15    1:   19
           3       1:   26   16:   45   20:   45
           4      27:   60    1:   15   20:   45
           5      27:   60   16:   45    1:   19
           6       1:   26    1:   15   20:   45
           7      27:   60   16:   45   20:   45
           8       1:   26    1:   16    1:   19
Setting up quadratic distribution...
ExtMesh (bp) on 0 =   128 x   116 x   100 =     1484800
PhiOnMesh: Number of (b)points on node 0 =                20480
PhiOnMesh: nlist on node 0 =                72824

        iscf     Eharris(eV)        E_KS(eV)     FreeEng(eV)     dDmax    Ef(eV) dHmax(eV)
   scf:    1     -465.805899     -465.805899     -465.805899  0.000012 -2.126105  0.000005

SCF Convergence by DM+H criterion
max |DM_out - DM_in|         :     0.0000123518
max |H_out - H_in|      (eV) :     0.0000054225
SCF cycle converged after 1 iterations

Using DM_out to compute the final energy and forces
No. of atoms with KB's overlaping orbs in proc 0. Max # of overlaps:       3      23

siesta: E_KS(eV) =             -465.8059

siesta: Atomic forces (eV/Ang):
----------------------------------------
   Tot   -0.000000   -0.000566    0.000000
----------------------------------------
   Max    0.734468
   Res    0.443007    sqrt( Sum f_i^2 / 3N )
----------------------------------------
   Max    0.734468    constrained

Stress-tensor-Voigt (kbar):       -7.17       -2.63       -0.11        0.00        0.00        0.00
(Free)E + p*V (eV/cell)     -465.3204
Target enthalpy (eV/cell)     -465.8059

siesta: Program's energy decomposition (eV):
siesta: Ebs     =      -104.323850
siesta: Eions   =       815.854478
siesta: Ena     =       175.154321
siesta: Ekin    =       353.636901
siesta: Enl     =       -63.030717
siesta: Eso     =         0.000000
siesta: Eldau   =         0.000000
siesta: DEna    =        -3.294014
siesta: DUscf   =         0.753731
siesta: DUext   =         0.000000
siesta: Exc     =      -113.171642
siesta: eta*DQ  =         0.000000
siesta: Emadel  =         0.000000
siesta: Emeta   =         0.000000
siesta: Emolmec =         0.000000
siesta: Ekinion =         0.000000
siesta: Eharris =      -465.805899
siesta: Etot    =      -465.805899
siesta: FreeEng =      -465.805899

siesta: Final energy (eV):
siesta:  Band Struct. =    -104.323850
siesta:       Kinetic =     353.636901
siesta:       Hartree =     385.081304
siesta:       Eldau   =       0.000000
siesta:       Eso     =       0.000000
siesta:    Ext. field =       0.000000
siesta:   Exch.-corr. =    -113.171642
siesta:  Ion-electron =   -1079.840427
siesta:       Ion-ion =     -11.512034
siesta:       Ekinion =       0.000000
siesta:         Total =    -465.805899
siesta:         Fermi =      -2.126105

siesta: Atomic forces (eV/Ang):
siesta:      1    0.000000   -0.734468    0.000000
siesta:      2    0.691935    0.366951   -0.000000
siesta:      3   -0.691935    0.366951   -0.000000
siesta: ----------------------------------------
siesta:    Tot   -0.000000   -0.000566    0.000000

siesta: Stress tensor (static) (eV/Ang**3):
siesta:    -0.004477    0.000000    0.000000
siesta:     0.000000   -0.001644   -0.000000
siesta:     0.000000    0.000000   -0.000067

siesta: Cell volume =        235.378012 Ang**3

siesta: Pressure (static):
siesta:                Solid            Molecule  Units
siesta:           0.00002247         -0.00000033  Ry/Bohr**3
siesta:           0.00206266         -0.00003025  eV/Ang**3
siesta:           3.30478508         -0.04846837  kBar
(Free)E+ p_basis*V_orbitals  =        -465.220731
(Free)Eharris+ p_basis*V_orbitals  =        -465.220731

siesta: Electric dipole (a.u.)  =   -0.000000    0.557159    0.000000
siesta: Electric dipole (Debye) =   -0.000000    1.416158    0.000000
>> End of run:   4-JUL-2017   8:28:53
Job completed
