
                           ***********************       
                           *  WELCOME TO SIESTA  *       
                           ***********************       

reinit: Reading from ../h2o_fire.fdf

reinit: -----------------------------------------------------------------------
reinit: System Name: Water molecule
reinit: -----------------------------------------------------------------------
reinit: System Label: h2o_fire
reinit: -----------------------------------------------------------------------
Siesta Version: siesta-4.1--731
Architecture  : x86_64-linux-n-62-18-14
Compiler flags: mpifort -m64 -fPIC -O3 -march=native -ftree-vectorize -fexpensive-optimizatioons -funroll-loops -fprefetch-loop-arrays -fno-second-underscore  -flto -fuse-linker-plugin
PP flags      : -I/zdata/groups/common/nicpa/2016-oct/generic/build-tools/1.0/include -I/zdatta/groups/common/nicpa/2016-oct/generic/gmp/6.1.0/include -I/zdata/groups/common/nicpa/2016-oct/generic/mpfr/3.1.4/include -I/zdata/groups/common/nicpa/2016-oct/generic/mpc/1.0.3/include -I/zdata/groups/common/nicpa/2016-oct/generic/isl/0.16.1/include -I/zdata/groups/common/nicpa/2016-oct/generic/gcc/6.2.0/include -I/zdata/groups/common/nicpa/2016-oct/generic/numactl/2.0.11/include -I/zdata/groups/common/nicpa/2016-oct/XeonE5-2665/zlib/1.2.8/gnu-6.2.0/include -I/zdata/groups/common/nicpa/2016-oct/XeonE5-2665/libxml2/2.9.4/gnu-6.2.0/include -I/zdata/groups/common/nicpa/2016-oct/XeonE5-2665/hwloc/1.11.4/gnu-6.2.0/include -I/zdata/groups/common/nicpa/2016-oct/XeonE5-2665/openmpi/2.0.1/gnu-6.2.0/include -I/zdata/groups/common/nicpa/2016-oct/XeonE5-2665/hdf5/1.8.17/gnu-6.2.0/include -I/zdata/groups/common/nicpa/2016-oct/XeonE5-2665/pnetcdf/1.7.0/gnu-6.2.0/include -I/zdata/groups/common/nicpa/2016-oct/XeonE5-2665/netcdf/4.4.1/gnu-6.2.0/include -I/zdata/groups/common/nicpa/2016-oct/XeonE5-2665/flook/0.7.0/gnu-6.2.0/include -I/zdata/groups/common/nicpa/2016-oct/XeonE5-2665/parmetis/4.0.3/gnu-6.2.0/include -I/zdata/groups/common/nicpa/2016-oct/XeonE5-2665/scalapack/204/gnu-6.2.0/include -I/zdata/groups/common/nicpa/2016-oct/XeonE5-2665/openblas/0.2.19/gnu-6.2.0/include -I/zdata/groups/common/nicpa/2016-oct/XeonE5-2665/mumps/5.0.2/gnu-6.2.0/include -I/zdata/groups/common/nicpa/2016-oct/XeonE5-2665/fftw/3.3.5/gnu-6.2.0/include -DMPI -DFC_HAVE_FLUSH -DFC_HAVE_ABORT -DCDF -DCDF4 -DSIESTA__METIS -DSIESTA__MUMPS -DTS_NOCHECKS -DNCDF -DNCDF_4 -DNCDF_PARALLEL -DSIESTA__FLOOK
Libraries     : -lnetcdff -lnetcdf -lpnetcdf -lhdf5_hl -lhdf5 -lz  -lzmumps -lmumps_common -llpord -lparmetis -lmetis -lscalapack -lopenblas  -lmetis -flto -fuse-linker-plugin  -L/zdata/groups/common/nicpa/2016-oct/XeonE5-2665/flook/0.7.0/gnu-6.2.0/lib -Wl,-rpath=/zdata/groups/common/nicpa/2016-oct/XeonE5-2665/flook/0.7.0/gnu-6.2.0/lib -lflookall -ldl
PARALLEL version
NetCDF support
NetCDF-4 support
NetCDF-4 MPI-IO support
METIS ordering support

* Running on 8 nodes in parallel
>> Start of run:   4-JUL-2017   8:28:42

initatom: Reading input for the pseudopotentials and atomic orbitals ----------
Species number:   1 Atomic number:    8 Label: O
Species number:   2 Atomic number:    1 Label: H

Ground state valence configuration:   2s02  2p04
Reading pseudopotential information in formatted form from O.psf

Valence configuration for pseudopotential generation:
2s( 2.00) rc: 1.14
2p( 4.00) rc: 1.14
3d( 0.00) rc: 1.14
4f( 0.00) rc: 1.14
Ground state valence configuration:   1s01
Reading pseudopotential information in formatted form from H.psf

Valence configuration for pseudopotential generation:
1s( 1.00) rc: 1.25
2p( 0.00) rc: 1.25
3d( 0.00) rc: 1.25
4f( 0.00) rc: 1.25
For O, standard SIESTA heuristics set lmxkb to 3
 (one more than the basis l, including polarization orbitals).
Use PS.lmax or PS.KBprojectors blocks to override.
For H, standard SIESTA heuristics set lmxkb to 2
 (one more than the basis l, including polarization orbitals).
Use PS.lmax or PS.KBprojectors blocks to override.

<basis_specs>
===============================================================================
O                    Z=   8    Mass=  16.000        Charge= 0.17977+309
Lmxo=1 Lmxkb= 3    BasisType=split      Semic=F
L=0  Nsemic=0  Cnfigmx=2
          n=1  nzeta=2  polorb=0
            splnorm:   0.15000    
               vcte:    0.0000    
               rinn:    0.0000    
               qcoe:    0.0000    
               qyuk:    0.0000    
               qwid:   0.10000E-01
                rcs:    0.0000      0.0000    
            lambdas:    1.0000      1.0000    
L=1  Nsemic=0  Cnfigmx=2
          n=1  nzeta=2  polorb=1
            splnorm:   0.15000    
               vcte:    0.0000    
               rinn:    0.0000    
               qcoe:    0.0000    
               qyuk:    0.0000    
               qwid:   0.10000E-01
                rcs:    0.0000      0.0000    
            lambdas:    1.0000      1.0000    
-------------------------------------------------------------------------------
L=0  Nkbl=1  erefs: 0.17977+309
L=1  Nkbl=1  erefs: 0.17977+309
L=2  Nkbl=1  erefs: 0.17977+309
L=3  Nkbl=1  erefs: 0.17977+309
===============================================================================
</basis_specs>

atom: Called for O                     (Z =   8)

read_vps: Pseudopotential generation method:
read_vps: ATM3      Troullier-Martins                       
Total valence charge:    6.00000

xc_check: Exchange-correlation functional:
xc_check: Ceperley-Alder
V l=0 = -2*Zval/r beyond r=  1.1278
V l=1 = -2*Zval/r beyond r=  1.1278
V l=2 = -2*Zval/r beyond r=  1.1278
V l=3 = -2*Zval/r beyond r=  1.1138
All V_l potentials equal beyond r=  1.1278
This should be close to max(r_c) in ps generation
All pots = -2*Zval/r beyond r=  1.1278

VLOCAL1: 99.0% of the norm of Vloc inside     34.126 Ry
VLOCAL1: 99.9% of the norm of Vloc inside     77.774 Ry
atom: Maximum radius for 4*pi*r*r*local-pseudopot. charge    1.37759
atom: Maximum radius for r*vlocal+2*Zval:    1.18566
GHOST: No ghost state for L =  0
GHOST: No ghost state for L =  1
GHOST: No ghost state for L =  2
GHOST: No ghost state for L =  3

KBgen: Kleinman-Bylander projectors: 
   l= 0   rc=  1.294105   el= -1.742414   Ekb=  9.135903   kbcos=  0.326910
   l= 1   rc=  1.294105   el= -0.676589   Ekb= -8.124878   kbcos= -0.395047
   l= 2   rc=  1.448233   el=  0.002386   Ekb= -2.039267   kbcos= -0.003484
   l= 3   rc=  1.561052   el=  0.003508   Ekb= -0.799141   kbcos= -0.000344

KBgen: Total number of  Kleinman-Bylander projectors:   16
atom: -------------------------------------------------------------------------

atom: SANKEY-TYPE ORBITALS:
atom: Selected multiple-zeta basis: split     

SPLIT: Orbitals with angular momentum L= 0

SPLIT: Basis orbitals for state 2s

SPLIT: PAO cut-off radius determined from an
SPLIT: energy shift=  0.020000 Ry

   izeta = 1
                 lambda =    1.000000
                     rc =    3.305093
                 energy =   -1.723766
                kinetic =    1.614911
    potential(screened) =   -3.338677
       potential(ionic) =  -11.304675

   izeta = 2
                 rmatch =    2.510382
              splitnorm =    0.150000
                 energy =   -1.471299
                kinetic =    2.446434
    potential(screened) =   -3.917732
       potential(ionic) =  -12.476133

SPLIT: Orbitals with angular momentum L= 1

SPLIT: Basis orbitals for state 2p

SPLIT: PAO cut-off radius determined from an
SPLIT: energy shift=  0.020000 Ry

   izeta = 1
                 lambda =    1.000000
                     rc =    3.937239
                 energy =   -0.658841
                kinetic =    5.005986
    potential(screened) =   -5.664827
       potential(ionic) =  -13.452360

   izeta = 2
                 rmatch =    2.541963
              splitnorm =    0.150000
                 energy =   -0.367441
                kinetic =    7.530509
    potential(screened) =   -7.897949
       potential(ionic) =  -16.611953

POLgen: Perturbative polarization orbital with L=  2

POLgen: Polarization orbital for state 2p

   izeta = 1
                     rc =    3.937239
                 energy =    2.398520
                kinetic =    4.716729
    potential(screened) =   -2.318209
       potential(ionic) =   -8.603170
atom: Total number of Sankey-type orbitals: 13

atm_pop: Valence configuration (for local Pseudopot. screening):
 2s( 2.00)                                                            
 2p( 4.00)                                                            
Vna: chval, zval:    6.00000   6.00000

Vna:  Cut-off radius for the neutral-atom potential:   3.937239

atom: _________________________________________________________________________

<basis_specs>
===============================================================================
H                    Z=   1    Mass=  1.0100        Charge= 0.17977+309
Lmxo=0 Lmxkb= 2    BasisType=split      Semic=F
L=0  Nsemic=0  Cnfigmx=1
          n=1  nzeta=2  polorb=1
            splnorm:   0.15000    
               vcte:    0.0000    
               rinn:    0.0000    
               qcoe:    0.0000    
               qyuk:    0.0000    
               qwid:   0.10000E-01
                rcs:    0.0000      0.0000    
            lambdas:    1.0000      1.0000    
-------------------------------------------------------------------------------
L=0  Nkbl=1  erefs: 0.17977+309
L=1  Nkbl=1  erefs: 0.17977+309
L=2  Nkbl=1  erefs: 0.17977+309
===============================================================================
</basis_specs>

atom: Called for H                     (Z =   1)

read_vps: Pseudopotential generation method:
read_vps: ATM3      Troullier-Martins                       
Total valence charge:    1.00000

xc_check: Exchange-correlation functional:
xc_check: Ceperley-Alder
V l=0 = -2*Zval/r beyond r=  1.2343
V l=1 = -2*Zval/r beyond r=  1.2189
V l=2 = -2*Zval/r beyond r=  1.2189
All V_l potentials equal beyond r=  1.2343
This should be close to max(r_c) in ps generation
All pots = -2*Zval/r beyond r=  1.2343

VLOCAL1: 99.0% of the norm of Vloc inside     28.493 Ry
VLOCAL1: 99.9% of the norm of Vloc inside     64.935 Ry
atom: Maximum radius for 4*pi*r*r*local-pseudopot. charge    1.45251
atom: Maximum radius for r*vlocal+2*Zval:    1.21892
GHOST: No ghost state for L =  0
GHOST: No ghost state for L =  1
GHOST: No ghost state for L =  2

KBgen: Kleinman-Bylander projectors: 
   l= 0   rc=  1.364359   el= -0.467325   Ekb= -2.005361   kbcos= -0.336422
   l= 1   rc=  1.434438   el=  0.001430   Ekb= -0.501708   kbcos= -0.021697
   l= 2   rc=  1.470814   el=  0.002365   Ekb= -0.190555   kbcos= -0.002281

KBgen: Total number of  Kleinman-Bylander projectors:    9
atom: -------------------------------------------------------------------------

atom: SANKEY-TYPE ORBITALS:
atom: Selected multiple-zeta basis: split     

SPLIT: Orbitals with angular momentum L= 0

SPLIT: Basis orbitals for state 1s

SPLIT: PAO cut-off radius determined from an
SPLIT: energy shift=  0.020000 Ry

   izeta = 1
                 lambda =    1.000000
                     rc =    4.828263
                 energy =   -0.449375
                kinetic =    0.929372
    potential(screened) =   -1.378747
       potential(ionic) =   -1.915047

   izeta = 2
                 rmatch =    3.854947
              splitnorm =    0.150000
                 energy =   -0.336153
                kinetic =    1.505294
    potential(screened) =   -1.841447
       potential(ionic) =   -2.413582

POLgen: Perturbative polarization orbital with L=  1

POLgen: Polarization orbital for state 1s

   izeta = 1
                     rc =    4.828263
                 energy =    0.706972
                kinetic =    1.396397
    potential(screened) =   -0.689424
       potential(ionic) =   -1.169792
atom: Total number of Sankey-type orbitals:  5

atm_pop: Valence configuration (for local Pseudopot. screening):
 1s( 1.00)                                                            
Vna: chval, zval:    1.00000   1.00000

Vna:  Cut-off radius for the neutral-atom potential:   4.828263

atom: _________________________________________________________________________

prinput: Basis input ----------------------------------------------------------

PAO.BasisType split     

%block ChemicalSpeciesLabel
    1    8 O                       # Species index, atomic number, species label
    2    1 H                       # Species index, atomic number, species label
%endblock ChemicalSpeciesLabel

%block PAO.Basis                 # Define Basis set
O                     2                    # Species label, number of l-shells
 n=2   0   2                         # n, l, Nzeta 
   3.305      2.510   
   1.000      1.000   
 n=2   1   2 P   1                   # n, l, Nzeta, Polarization, NzetaPol
   3.937      2.542   
   1.000      1.000   
H                     1                    # Species label, number of l-shells
 n=1   0   2 P   1                   # n, l, Nzeta, Polarization, NzetaPol
   4.828      3.855   
   1.000      1.000   
%endblock PAO.Basis

prinput: ----------------------------------------------------------------------

Dumping basis to NetCDF file O.ion.nc
Dumping basis to NetCDF file H.ion.nc
coor:   Atomic-coordinates input format  =     Cartesian coordinates
coor:                                          (in Angstroms)

siesta: Atomic coordinates (Bohr) and species
siesta:      0.00000   0.00000   0.00000  1        1
siesta:      1.24155   1.10738   0.00000  2        2
siesta:     -1.61950   1.10738   0.00000  2        3

siesta: Automatic unit cell vectors (Ang):
siesta:    7.286412    0.000000    0.000000
siesta:    0.000000    5.746952    0.000000
siesta:    0.000000    0.000000    5.621012

siesta: System type = molecule  

initatomlists: Number of atoms, orbitals, and projectors:      3    23    34

siesta: ******************** Simulation parameters ****************************
siesta:
siesta: The following are some of the parameters of the simulation.
siesta: A complete list of the parameters used, including default values,
siesta: can be found in file out.fdf
siesta:
redata: Spin configuration                          = none
redata: Number of spin components                   = 1
redata: Time-Reversal Symmetry                      = T
redata: Spin-spiral                                 = F
redata: Long output                                 =   F
redata: Number of Atomic Species                    =        2
redata: Charge density info will appear in .RHO file
redata: Write Mulliken Pop.                         = NO
redata: Mesh Cutoff                                 =   100.0000 Ry
redata: Net charge of the system                    =     0.0000 |e|
redata: Min. number of SCF Iter                     =        0
redata: Max. number of SCF Iter                     =       50
redata: SCF mix quantity                            = Hamiltonian
redata: Mix DM or H after convergence               =   F
redata: Recompute H after scf cycle                 =   F
redata: Mix DM in first SCF step                    =   T
redata: Write Pulay info on disk                    =   F
redata: New DM Mixing Weight                        =     0.2500
redata: New DM Occupancy tolerance                  = 0.000000000001
redata: No kicks to SCF
redata: DM Mixing Weight for Kicks                  =     0.5000
redata: Require Harris convergence for SCF          =   F
redata: Harris energy tolerance for SCF             =     0.000100 eV
redata: Require DM convergence for SCF              =   T
redata: DM tolerance for SCF                        =     0.0001
redata: Require EDM convergence for SCF             =   F
redata: EDM tolerance for SCF                       =     0.001000 eV
redata: Require H convergence for SCF               =   T
redata: Hamiltonian tolerance for SCF               =     0.001000 eV
redata: Require (free) Energy convergence for SCF   =   F
redata: (free) Energy tolerance for SCF             =     0.000100 eV
redata: Using Saved Data (generic)                  =   F
redata: Use continuation files for DM               =   F
redata: Neglect nonoverlap interactions             =   F
redata: Method of Calculation                       = Diagonalization
redata: Divide and Conquer                          =   T
redata: Electronic Temperature                      =   299.9869 K
redata: Fix the spin of the system                  =   F
redata: Dynamics option                             = LUA
mix.SCF: Pulay mixing                            = Pulay
mix.SCF:    Variant                              = stable
mix.SCF:    History steps                        = 2
mix.SCF:    Linear mixing weight                 =     0.250000
mix.SCF:    Mixing weight                        =     0.250000
mix.SCF:    SVD condition                        = 0.1000E-07
redata: Save all siesta data in one NC              =   F
redata: ***********************************************************************

%block SCF.Mixers
  Pulay
%endblock SCF.Mixers

%block SCF.Mixer.Pulay
  # Mixing method
  method pulay
  variant stable

  # Mixing options
  weight 0.2500
  weight.linear 0.2500
  history 2
%endblock SCF.Mixer.Pulay

Size of DM history Fstack: 1
Total number of electrons:     8.000000
Total ionic charge:     8.000000

* ProcessorY, Blocksize:    2   3


* Orbital distribution balance (max,min):     3     2

 Kpoints in:            1 . Kpoints trimmed:            1

siesta: k-grid: Number of k-points =     1
siesta: k-grid: Cutoff (effective) =     2.811 Ang
siesta: k-grid: Supercell and displacements
siesta: k-grid:    1   0   0      0.000
siesta: k-grid:    0   1   0      0.000
siesta: k-grid:    0   0   1      0.000

siesta: Constraint (1): pos
  [ 1 ]


FIRE: dT initial / current / max:  0.5000 / 0.5000 / 5.0000 fs
FIRE: alpha initial / current:  0.1000 /  0.1000
FIRE: # of positive G.V 0
FIRE: Tolerance 0.0400
FIRE: Maximum change 0.1058 
FIRE: Direction update: global
FIRE: Correction update: global


                     ====================================
                        LUA coord. step =      0
                     ====================================

outcell: Unit cell vectors (Ang):
        7.286412    0.000000    0.000000
        0.000000    5.746952    0.000000
        0.000000    0.000000    5.621012

outcell: Cell vector modules (Ang)   :    7.286412    5.746952    5.621012
outcell: Cell angles (23,13,12) (deg):     90.0000     90.0000     90.0000
outcell: Cell volume (Ang**3)        :    235.3780
<dSpData1D:S at geom step 0
  <sparsity:sparsity for geom step 0
    nrows_g=23 nrows=3 sparsity=.1304 nnzs=69, refcount: 7>
  <dData1D:(new from dSpData1D) n=69, refcount: 1>
refcount: 1>
new_DM -- step:     1
Initializing Density Matrix...
DM filled with atomic data:
<dSpData2D:DM initialized from atoms
  <sparsity:sparsity for geom step 0
    nrows_g=23 nrows=3 sparsity=.1304 nnzs=69, refcount: 8>
  <dData2D:DM n=69 m=1, refcount: 1>
refcount: 1>

No. of atoms with KB's overlaping orbs in proc 0. Max # of overlaps:       3      23
New grid distribution:   1
           1       1:   24    1:    9    1:    5
           2       1:   24    1:    9    6:   10
           3       1:   24    1:    9   11:   14
           4       1:   24    1:    9   15:   18
           5       1:   24   10:   18    1:    5
           6       1:   24   10:   18    6:   10
           7       1:   24   10:   18   11:   14
           8       1:   24   10:   18   15:   18

InitMesh: MESH =    48 x    36 x    36 =       62208
InitMesh: (bp) =    24 x    18 x    18 =        7776
InitMesh: Mesh cutoff (required, used) =   100.000   108.450 Ry
ExtMesh (bp) on 0 =    60 x    45 x    41 =      110700
New grid distribution:   2
           1       9:   24    6:   18    1:    6
           2       9:   24    1:    5    7:   18
           3       1:    8    1:    5    7:   18
           4       9:   24    1:    5    1:    6
           5       1:    8    6:   18    1:    6
           6       9:   24    6:   18    7:   18
           7       1:    8    6:   18    7:   18
           8       1:    8    1:    5    1:    6
New grid distribution:   3
           1      14:   24    7:   18    1:    8
           2       1:   13    1:    6    1:    8
           3      14:   24    7:   18    9:   18
           4       1:   13    1:    6    9:   18
           5       1:   13    7:   18    1:    8
           6      14:   24    1:    6    9:   18
           7       1:   13    7:   18    9:   18
           8      14:   24    1:    6    1:    8
Setting up quadratic distribution...
ExtMesh (bp) on 0 =    52 x    49 x    42 =      107016
PhiOnMesh: Number of (b)points on node 0 =                 1248
PhiOnMesh: nlist on node 0 =                 5294

stepf: Fermi-Dirac step function

siesta: Program's energy decomposition (eV):
siesta: Ebs     =       -81.648622
siesta: Eions   =       815.854478
siesta: Ena     =       175.563702
siesta: Ekin    =       379.145538
siesta: Enl     =       -69.855723
siesta: Eso     =         0.000000
siesta: Eldau   =         0.000000
siesta: DEna    =       -18.458409
siesta: DUscf   =         2.225986
siesta: DUext   =         0.000000
siesta: Exc     =      -117.351658
siesta: eta*DQ  =         0.000000
siesta: Emadel  =         0.000000
siesta: Emeta   =         0.000000
siesta: Emolmec =         0.000000
siesta: Ekinion =         0.000000
siesta: Eharris =      -466.175311
siesta: Etot    =      -464.585042
siesta: FreeEng =      -464.585042

        iscf     Eharris(eV)        E_KS(eV)     FreeEng(eV)     dDmax    Ef(eV) dHmax(eV)
   scf:    1     -466.175311     -464.585042     -464.585042  1.408731 -4.570847  7.541758
timer: Routine,Calls,Time,% = IterSCF        1       0.024   2.27
   scf:    2     -465.906476     -465.369029     -465.369029  0.063444 -3.305463  2.912686
   scf:    3     -465.489549     -465.471282     -465.471282  0.028883 -2.461302  0.339554
   scf:    4     -465.477087     -465.474388     -465.474388  0.009847 -2.384575  0.264699
   scf:    5     -465.476695     -465.475951     -465.475951  0.019466 -2.179793  0.071033
   scf:    6     -465.476052     -465.476009     -465.476009  0.001430 -2.138381  0.026159
   scf:    7     -465.476095     -465.476060     -465.476060  0.000917 -2.141961  0.018107
   scf:    8     -465.476090     -465.476077     -465.476077  0.000827 -2.147584  0.010676
   scf:    9     -465.476080     -465.476079     -465.476079  0.000435 -2.153133  0.004126
   scf:   10     -465.476079     -465.476079     -465.476079  0.000046 -2.155112  0.001564
   scf:   11     -465.476079     -465.476079     -465.476079  0.000033 -2.155345  0.001031
   scf:   12     -465.476079     -465.476079     -465.476079  0.000033 -2.155401  0.000479

SCF Convergence by DM+H criterion
max |DM_out - DM_in|         :     0.0000334711
max |H_out - H_in|      (eV) :     0.0004789283
SCF cycle converged after 12 iterations

Using DM_out to compute the final energy and forces
No. of atoms with KB's overlaping orbs in proc 0. Max # of overlaps:       3      23

siesta: E_KS(eV) =             -465.4761

siesta: E_KS - E_eggbox =      -465.4761

siesta: Atomic forces (eV/Ang):
----------------------------------------
   Tot    0.010459   -0.046623   -0.000000
----------------------------------------
   Max    7.044476
   Res    3.385837    sqrt( Sum f_i^2 / 3N )
----------------------------------------
   Max    4.834578    constrained

Stress-tensor-Voigt (kbar):       -8.81       -9.76       -1.00      -28.09        0.00       -0.00
(Free)E + p*V (eV/cell)     -464.5178
Target enthalpy (eV/cell)     -465.4761

                     ====================================
                        LUA coord. step =      1
                     ====================================

outcell: Unit cell vectors (Ang):
        7.286412    0.000000    0.000000
        0.000000    5.746952    0.000000
        0.000000    0.000000    5.621012

outcell: Cell vector modules (Ang)   :    7.286412    5.746952    5.621012
outcell: Cell angles (23,13,12) (deg):     90.0000     90.0000     90.0000
outcell: Cell volume (Ang**3)        :    235.3780
<dSpData1D:S at geom step 1
  <sparsity:sparsity for geom step 1
    nrows_g=23 nrows=3 sparsity=.1304 nnzs=69, refcount: 7>
  <dData1D:(new from dSpData1D) n=69, refcount: 1>
refcount: 1>
new_DM -- step:     2
Re-using DM from previous geometries...
Number of DMs in history: 1
 DM extrapolation coefficients: 
1   1.00000
New DM after history re-use:
<dSpData2D:SpM extrapolated using coords
  <sparsity:sparsity for geom step 1
    nrows_g=23 nrows=3 sparsity=.1304 nnzs=69, refcount: 8>
  <dData2D:(temp array for extrapolation) n=69 m=1, refcount: 1>
refcount: 1>
Note: For starting DM, Qtot, Tr[D*S] =          8.00000000          7.95366866
No. of atoms with KB's overlaping orbs in proc 0. Max # of overlaps:       3      23
New grid distribution:   1
           1       1:   24    1:    9    1:    5
           2       1:   24    1:    9    6:   10
           3       1:   24    1:    9   11:   14
           4       1:   24    1:    9   15:   18
           5       1:   24   10:   18    1:    5
           6       1:   24   10:   18    6:   10
           7       1:   24   10:   18   11:   14
           8       1:   24   10:   18   15:   18

InitMesh: MESH =    48 x    36 x    36 =       62208
InitMesh: (bp) =    24 x    18 x    18 =        7776
InitMesh: Mesh cutoff (required, used) =   100.000   108.450 Ry
ExtMesh (bp) on 0 =    60 x    45 x    41 =      110700
New grid distribution:   2
           1       8:   24    6:   18    1:    6
           2       8:   24    1:    5    7:   18
           3       8:   24    1:    5    1:    6
           4       1:    7    1:    5    7:   18
           5       1:    7    6:   18    1:    6
           6       8:   24    6:   18    7:   18
           7       1:    7    6:   18    7:   18
           8       1:    7    1:    5    1:    6
New grid distribution:   3
           1       1:   10    7:   18    1:    8
           2      11:   24    1:    6    1:    7
           3       1:   10    7:   18    9:   18
           4      11:   24    1:    6    8:   18
           5      11:   24    7:   18    1:    7
           6       1:   10    1:    6    9:   18
           7      11:   24    7:   18    8:   18
           8       1:   10    1:    6    1:    8
Setting up quadratic distribution...
ExtMesh (bp) on 0 =    53 x    49 x    42 =      109074
PhiOnMesh: Number of (b)points on node 0 =                 1326
PhiOnMesh: nlist on node 0 =                 5443

        iscf     Eharris(eV)        E_KS(eV)     FreeEng(eV)     dDmax    Ef(eV) dHmax(eV)
   scf:    1     -466.189458     -465.799261     -465.799261  0.085157 -2.032579  0.656033
   scf:    2     -465.758297     -465.801518     -465.801518  0.024298 -2.290520  0.762407
   scf:    3     -465.834532     -465.824510     -465.824510  0.012384 -2.128527  0.077689
   scf:    4     -465.824978     -465.824762     -465.824762  0.000653 -2.123315  0.041572
   scf:    5     -465.824928     -465.824857     -465.824857  0.000607 -2.121479  0.014316
   scf:    6     -465.824870     -465.824864     -465.824864  0.000231 -2.122653  0.009990
   scf:    7     -465.824869     -465.824867     -465.824867  0.000289 -2.124185  0.003357
   scf:    8     -465.824867     -465.824867     -465.824867  0.000055 -2.124497  0.001464
   scf:    9     -465.824867     -465.824867     -465.824867  0.000046 -2.124761  0.000706

SCF Convergence by DM+H criterion
max |DM_out - DM_in|         :     0.0000458723
max |H_out - H_in|      (eV) :     0.0007061209
SCF cycle converged after 9 iterations

Using DM_out to compute the final energy and forces
No. of atoms with KB's overlaping orbs in proc 0. Max # of overlaps:       3      23

siesta: E_KS(eV) =             -465.8249

siesta: Atomic forces (eV/Ang):
----------------------------------------
   Tot    0.010616   -0.028909    0.000000
----------------------------------------
   Max    0.938583
   Res    0.487386    sqrt( Sum f_i^2 / 3N )
----------------------------------------
   Max    0.718174    constrained

Stress-tensor-Voigt (kbar):        6.19        3.73       -1.02       -0.68        0.00       -0.00
(Free)E + p*V (eV/cell)     -466.2612
Target enthalpy (eV/cell)     -465.8249

                     ====================================
                        LUA coord. step =      2
                     ====================================

outcell: Unit cell vectors (Ang):
        7.286412    0.000000    0.000000
        0.000000    5.746952    0.000000
        0.000000    0.000000    5.621012

outcell: Cell vector modules (Ang)   :    7.286412    5.746952    5.621012
outcell: Cell angles (23,13,12) (deg):     90.0000     90.0000     90.0000
outcell: Cell volume (Ang**3)        :    235.3780
<dSpData1D:S at geom step 2
  <sparsity:sparsity for geom step 2
    nrows_g=23 nrows=3 sparsity=.1304 nnzs=69, refcount: 7>
  <dData1D:(new from dSpData1D) n=69, refcount: 1>
refcount: 1>
new_DM -- step:     3
Re-using DM from previous geometries...
Number of DMs in history: 1
 DM extrapolation coefficients: 
1   1.00000
New DM after history re-use:
<dSpData2D:SpM extrapolated using coords
  <sparsity:sparsity for geom step 2
    nrows_g=23 nrows=3 sparsity=.1304 nnzs=69, refcount: 8>
  <dData2D:(temp array for extrapolation) n=69 m=1, refcount: 1>
refcount: 1>
Note: For starting DM, Qtot, Tr[D*S] =          8.00000000          8.00838268
No. of atoms with KB's overlaping orbs in proc 0. Max # of overlaps:       3      23
New grid distribution:   1
           1       1:   24    1:    9    1:    5
           2       1:   24    1:    9    6:   10
           3       1:   24    1:    9   11:   14
           4       1:   24    1:    9   15:   18
           5       1:   24   10:   18    1:    5
           6       1:   24   10:   18    6:   10
           7       1:   24   10:   18   11:   14
           8       1:   24   10:   18   15:   18

InitMesh: MESH =    48 x    36 x    36 =       62208
InitMesh: (bp) =    24 x    18 x    18 =        7776
InitMesh: Mesh cutoff (required, used) =   100.000   108.450 Ry
ExtMesh (bp) on 0 =    60 x    45 x    41 =      110700
New grid distribution:   2
           1       8:   24    6:   18    1:    6
           2       8:   24    1:    5    7:   18
           3       8:   24    1:    5    1:    6
           4       1:    7    1:    5    7:   18
           5       1:    7    6:   18    1:    6
           6       8:   24    6:   18    7:   18
           7       1:    7    6:   18    7:   18
           8       1:    7    1:    5    1:    6
New grid distribution:   3
           1       1:   10    7:   18    1:    8
           2      11:   24    1:    6    1:    7
           3       1:   10    7:   18    9:   18
           4      11:   24    1:    6    8:   18
           5      11:   24    7:   18    1:    7
           6       1:   10    1:    6    9:   18
           7      11:   24    7:   18    8:   18
           8       1:   10    1:    6    1:    8
Setting up quadratic distribution...
ExtMesh (bp) on 0 =    53 x    49 x    42 =      109074
PhiOnMesh: Number of (b)points on node 0 =                 1326
PhiOnMesh: nlist on node 0 =                 5433

        iscf     Eharris(eV)        E_KS(eV)     FreeEng(eV)     dDmax    Ef(eV) dHmax(eV)
   scf:    1     -465.770663     -465.832363     -465.832363  0.009819 -2.142008  0.097990
   scf:    2     -465.830566     -465.831939     -465.831939  0.004334 -2.082973  0.169377
   scf:    3     -465.832770     -465.832552     -465.832552  0.002700 -2.120630  0.003901
   scf:    4     -465.832553     -465.832553     -465.832553  0.000103 -2.120309  0.002668
   scf:    5     -465.832554     -465.832553     -465.832553  0.000192 -2.119623  0.001020
   scf:    6     -465.832553     -465.832553     -465.832553  0.000021 -2.119468  0.000631

SCF Convergence by DM+H criterion
max |DM_out - DM_in|         :     0.0000210278
max |H_out - H_in|      (eV) :     0.0006312812
SCF cycle converged after 6 iterations

Using DM_out to compute the final energy and forces
No. of atoms with KB's overlaping orbs in proc 0. Max # of overlaps:       3      23

siesta: E_KS(eV) =             -465.8326

siesta: Atomic forces (eV/Ang):
----------------------------------------
   Tot    0.006499   -0.029371    0.000000
----------------------------------------
   Max    0.648654
   Res    0.326096    sqrt( Sum f_i^2 / 3N )
----------------------------------------
   Max    0.448071    constrained

Stress-tensor-Voigt (kbar):        3.78        2.52       -1.01       -0.45        0.00       -0.00
(Free)E + p*V (eV/cell)     -466.0914
Target enthalpy (eV/cell)     -465.8326

                     ====================================
                        LUA coord. step =      3
                     ====================================

outcell: Unit cell vectors (Ang):
        7.286412    0.000000    0.000000
        0.000000    5.746952    0.000000
        0.000000    0.000000    5.621012

outcell: Cell vector modules (Ang)   :    7.286412    5.746952    5.621012
outcell: Cell angles (23,13,12) (deg):     90.0000     90.0000     90.0000
outcell: Cell volume (Ang**3)        :    235.3780
<dSpData1D:S at geom step 3
  <sparsity:sparsity for geom step 3
    nrows_g=23 nrows=3 sparsity=.1304 nnzs=69, refcount: 7>
  <dData1D:(new from dSpData1D) n=69, refcount: 1>
refcount: 1>
new_DM -- step:     4
Re-using DM from previous geometries...
Number of DMs in history: 1
 DM extrapolation coefficients: 
1   1.00000
New DM after history re-use:
<dSpData2D:SpM extrapolated using coords
  <sparsity:sparsity for geom step 3
    nrows_g=23 nrows=3 sparsity=.1304 nnzs=69, refcount: 8>
  <dData2D:(temp array for extrapolation) n=69 m=1, refcount: 1>
refcount: 1>
Note: For starting DM, Qtot, Tr[D*S] =          8.00000000          8.02214262
No. of atoms with KB's overlaping orbs in proc 0. Max # of overlaps:       3      23
New grid distribution:   1
           1       1:   24    1:    9    1:    5
           2       1:   24    1:    9    6:   10
           3       1:   24    1:    9   11:   14
           4       1:   24    1:    9   15:   18
           5       1:   24   10:   18    1:    5
           6       1:   24   10:   18    6:   10
           7       1:   24   10:   18   11:   14
           8       1:   24   10:   18   15:   18

InitMesh: MESH =    48 x    36 x    36 =       62208
InitMesh: (bp) =    24 x    18 x    18 =        7776
InitMesh: Mesh cutoff (required, used) =   100.000   108.450 Ry
ExtMesh (bp) on 0 =    60 x    45 x    41 =      110700
New grid distribution:   2
           1       8:   24    6:   18    1:    6
           2       8:   24    1:    5    7:   18
           3       8:   24    1:    5    1:    6
           4       1:    7    1:    5    7:   18
           5       1:    7    6:   18    1:    6
           6       8:   24    6:   18    7:   18
           7       1:    7    6:   18    7:   18
           8       1:    7    1:    5    1:    6
New grid distribution:   3
           1      11:   24    7:   18    1:    8
           2       1:   10    7:   18    1:    8
           3      11:   24    1:    6    9:   18
           4       1:   10    1:    6    9:   18
           5      11:   24    1:    6    1:    8
           6       1:   10    1:    6    1:    8
           7      11:   24    7:   18    9:   18
           8       1:   10    7:   18    9:   18
Setting up quadratic distribution...
ExtMesh (bp) on 0 =    53 x    49 x    42 =      109074
PhiOnMesh: Number of (b)points on node 0 =                 1326
PhiOnMesh: nlist on node 0 =                 5408

        iscf     Eharris(eV)        E_KS(eV)     FreeEng(eV)     dDmax    Ef(eV) dHmax(eV)
   scf:    1     -465.669411     -465.835368     -465.835368  0.026432 -2.173327  0.261135
   scf:    2     -465.823317     -465.832551     -465.832551  0.011133 -2.015241  0.441428
   scf:    3     -465.838170     -465.836684     -465.836684  0.006846 -2.115106  0.010553
   scf:    4     -465.836692     -465.836688     -465.836688  0.000266 -2.114114  0.007175
   scf:    5     -465.836693     -465.836691     -465.836691  0.000503 -2.112098  0.002546
   scf:    6     -465.836691     -465.836691     -465.836691  0.000052 -2.111711  0.001546
   scf:    7     -465.836691     -465.836691     -465.836691  0.000073 -2.111052  0.000313

SCF Convergence by DM+H criterion
max |DM_out - DM_in|         :     0.0000731795
max |H_out - H_in|      (eV) :     0.0003133135
SCF cycle converged after 7 iterations

Using DM_out to compute the final energy and forces
No. of atoms with KB's overlaping orbs in proc 0. Max # of overlaps:       3      23

siesta: E_KS(eV) =             -465.8367

siesta: Atomic forces (eV/Ang):
----------------------------------------
   Tot   -0.004945   -0.033660    0.000000
----------------------------------------
   Max    0.325977
   Res    0.151240    sqrt( Sum f_i^2 / 3N )
----------------------------------------
   Max    0.325977    constrained

Stress-tensor-Voigt (kbar):       -2.94       -0.84       -1.00        0.25        0.00        0.00
(Free)E + p*V (eV/cell)     -465.6023
Target enthalpy (eV/cell)     -465.8367

                     ====================================
                        LUA coord. step =      4
                     ====================================

outcell: Unit cell vectors (Ang):
        7.286412    0.000000    0.000000
        0.000000    5.746952    0.000000
        0.000000    0.000000    5.621012

outcell: Cell vector modules (Ang)   :    7.286412    5.746952    5.621012
outcell: Cell angles (23,13,12) (deg):     90.0000     90.0000     90.0000
outcell: Cell volume (Ang**3)        :    235.3780
<dSpData1D:S at geom step 4
  <sparsity:sparsity for geom step 4
    nrows_g=23 nrows=3 sparsity=.1304 nnzs=69, refcount: 7>
  <dData1D:(new from dSpData1D) n=69, refcount: 1>
refcount: 1>
new_DM -- step:     5
Re-using DM from previous geometries...
Number of DMs in history: 1
 DM extrapolation coefficients: 
1   1.00000
New DM after history re-use:
<dSpData2D:SpM extrapolated using coords
  <sparsity:sparsity for geom step 4
    nrows_g=23 nrows=3 sparsity=.1304 nnzs=69, refcount: 8>
  <dData2D:(temp array for extrapolation) n=69 m=1, refcount: 1>
refcount: 1>
No. of atoms with KB's overlaping orbs in proc 0. Max # of overlaps:       3      23
New grid distribution:   1
           1       1:   24    1:    9    1:    5
           2       1:   24    1:    9    6:   10
           3       1:   24    1:    9   11:   14
           4       1:   24    1:    9   15:   18
           5       1:   24   10:   18    1:    5
           6       1:   24   10:   18    6:   10
           7       1:   24   10:   18   11:   14
           8       1:   24   10:   18   15:   18

InitMesh: MESH =    48 x    36 x    36 =       62208
InitMesh: (bp) =    24 x    18 x    18 =        7776
InitMesh: Mesh cutoff (required, used) =   100.000   108.450 Ry
ExtMesh (bp) on 0 =    60 x    45 x    41 =      110700
New grid distribution:   2
           1       8:   24    6:   18    1:    6
           2       8:   24    1:    5    7:   18
           3       8:   24    1:    5    1:    6
           4       1:    7    1:    5    7:   18
           5       1:    7    6:   18    1:    6
           6       8:   24    6:   18    7:   18
           7       1:    7    6:   18    7:   18
           8       1:    7    1:    5    1:    6
New grid distribution:   3
           1      11:   24    7:   18    1:    8
           2       1:   10    7:   18    1:    8
           3      11:   24    1:    6    9:   18
           4       1:   10    1:    6    9:   18
           5      11:   24    1:    6    1:    8
           6       1:   10    1:    6    1:    8
           7      11:   24    7:   18    9:   18
           8       1:   10    7:   18    9:   18
Setting up quadratic distribution...
ExtMesh (bp) on 0 =    53 x    49 x    42 =      109074
PhiOnMesh: Number of (b)points on node 0 =                 1326
PhiOnMesh: nlist on node 0 =                 5416

        iscf     Eharris(eV)        E_KS(eV)     FreeEng(eV)     dDmax    Ef(eV) dHmax(eV)
   scf:    1     -465.842602     -465.836992     -465.836992  0.000790 -2.108040  0.007231
   scf:    2     -465.836984     -465.836991     -465.836991  0.000297 -2.112126  0.011697
   scf:    3     -465.836995     -465.836993     -465.836993  0.000183 -2.109534  0.000315
   scf:    4     -465.836993     -465.836993     -465.836993  0.000009 -2.109553  0.000227

SCF Convergence by DM+H criterion
max |DM_out - DM_in|         :     0.0000085857
max |H_out - H_in|      (eV) :     0.0002271130
SCF cycle converged after 4 iterations

Using DM_out to compute the final energy and forces
No. of atoms with KB's overlaping orbs in proc 0. Max # of overlaps:       3      23

siesta: E_KS(eV) =             -465.8370

siesta: Atomic forces (eV/Ang):
----------------------------------------
   Tot   -0.004395   -0.033481    0.000000
----------------------------------------
   Max    0.296612
   Res    0.135879    sqrt( Sum f_i^2 / 3N )
----------------------------------------
   Max    0.296612    constrained

Stress-tensor-Voigt (kbar):       -2.70       -0.74       -1.00        0.22        0.00        0.00
(Free)E + p*V (eV/cell)     -465.6195
Target enthalpy (eV/cell)     -465.8370

                     ====================================
                        LUA coord. step =      5
                     ====================================

outcell: Unit cell vectors (Ang):
        7.286412    0.000000    0.000000
        0.000000    5.746952    0.000000
        0.000000    0.000000    5.621012

outcell: Cell vector modules (Ang)   :    7.286412    5.746952    5.621012
outcell: Cell angles (23,13,12) (deg):     90.0000     90.0000     90.0000
outcell: Cell volume (Ang**3)        :    235.3780
<dSpData1D:S at geom step 5
  <sparsity:sparsity for geom step 5
    nrows_g=23 nrows=3 sparsity=.1304 nnzs=69, refcount: 7>
  <dData1D:(new from dSpData1D) n=69, refcount: 1>
refcount: 1>
new_DM -- step:     6
Re-using DM from previous geometries...
Number of DMs in history: 1
 DM extrapolation coefficients: 
1   1.00000
New DM after history re-use:
<dSpData2D:SpM extrapolated using coords
  <sparsity:sparsity for geom step 5
    nrows_g=23 nrows=3 sparsity=.1304 nnzs=69, refcount: 8>
  <dData2D:(temp array for extrapolation) n=69 m=1, refcount: 1>
refcount: 1>
No. of atoms with KB's overlaping orbs in proc 0. Max # of overlaps:       3      23
New grid distribution:   1
           1       1:   24    1:    9    1:    5
           2       1:   24    1:    9    6:   10
           3       1:   24    1:    9   11:   14
           4       1:   24    1:    9   15:   18
           5       1:   24   10:   18    1:    5
           6       1:   24   10:   18    6:   10
           7       1:   24   10:   18   11:   14
           8       1:   24   10:   18   15:   18

InitMesh: MESH =    48 x    36 x    36 =       62208
InitMesh: (bp) =    24 x    18 x    18 =        7776
InitMesh: Mesh cutoff (required, used) =   100.000   108.450 Ry
ExtMesh (bp) on 0 =    60 x    45 x    41 =      110700
New grid distribution:   2
           1       8:   24    6:   18    1:    6
           2       8:   24    1:    5    7:   18
           3       8:   24    1:    5    1:    6
           4       1:    7    1:    5    7:   18
           5       1:    7    6:   18    1:    6
           6       8:   24    6:   18    7:   18
           7       1:    7    6:   18    7:   18
           8       1:    7    1:    5    1:    6
New grid distribution:   3
           1      11:   24    7:   18    1:    8
           2       1:   10    7:   18    1:    8
           3      11:   24    1:    6    9:   18
           4       1:   10    1:    6    9:   18
           5      11:   24    1:    6    1:    8
           6       1:   10    1:    6    1:    8
           7      11:   24    7:   18    9:   18
           8       1:   10    7:   18    9:   18
Setting up quadratic distribution...
ExtMesh (bp) on 0 =    53 x    49 x    42 =      109074
PhiOnMesh: Number of (b)points on node 0 =                 1326
PhiOnMesh: nlist on node 0 =                 5417

        iscf     Eharris(eV)        E_KS(eV)     FreeEng(eV)     dDmax    Ef(eV) dHmax(eV)
   scf:    1     -465.853926     -465.837699     -465.837699  0.002303 -2.100984  0.020303
   scf:    2     -465.837632     -465.837684     -465.837684  0.000836 -2.112255  0.032756
   scf:    3     -465.837715     -465.837707     -465.837707  0.000515 -2.105089  0.000913
   scf:    4     -465.837707     -465.837707     -465.837707  0.000026 -2.105130  0.000661

SCF Convergence by DM+H criterion
max |DM_out - DM_in|         :     0.0000261119
max |H_out - H_in|      (eV) :     0.0006608538
SCF cycle converged after 4 iterations

Using DM_out to compute the final energy and forces
No. of atoms with KB's overlaping orbs in proc 0. Max # of overlaps:       3      23

siesta: E_KS(eV) =             -465.8377

siesta: Atomic forces (eV/Ang):
----------------------------------------
   Tot   -0.003079   -0.033016    0.000000
----------------------------------------
   Max    0.212746
   Res    0.093050    sqrt( Sum f_i^2 / 3N )
----------------------------------------
   Max    0.212746    constrained

Stress-tensor-Voigt (kbar):       -2.00       -0.44       -1.01        0.13        0.00        0.00
(Free)E + p*V (eV/cell)     -465.6688
Target enthalpy (eV/cell)     -465.8377

                     ====================================
                        LUA coord. step =      6
                     ====================================

outcell: Unit cell vectors (Ang):
        7.286412    0.000000    0.000000
        0.000000    5.746952    0.000000
        0.000000    0.000000    5.621012

outcell: Cell vector modules (Ang)   :    7.286412    5.746952    5.621012
outcell: Cell angles (23,13,12) (deg):     90.0000     90.0000     90.0000
outcell: Cell volume (Ang**3)        :    235.3780
<dSpData1D:S at geom step 6
  <sparsity:sparsity for geom step 6
    nrows_g=23 nrows=3 sparsity=.1304 nnzs=69, refcount: 7>
  <dData1D:(new from dSpData1D) n=69, refcount: 1>
refcount: 1>
new_DM -- step:     7
Re-using DM from previous geometries...
Number of DMs in history: 1
 DM extrapolation coefficients: 
1   1.00000
New DM after history re-use:
<dSpData2D:SpM extrapolated using coords
  <sparsity:sparsity for geom step 6
    nrows_g=23 nrows=3 sparsity=.1304 nnzs=69, refcount: 8>
  <dData2D:(temp array for extrapolation) n=69 m=1, refcount: 1>
refcount: 1>
No. of atoms with KB's overlaping orbs in proc 0. Max # of overlaps:       3      23
New grid distribution:   1
           1       1:   24    1:    9    1:    5
           2       1:   24    1:    9    6:   10
           3       1:   24    1:    9   11:   14
           4       1:   24    1:    9   15:   18
           5       1:   24   10:   18    1:    5
           6       1:   24   10:   18    6:   10
           7       1:   24   10:   18   11:   14
           8       1:   24   10:   18   15:   18

InitMesh: MESH =    48 x    36 x    36 =       62208
InitMesh: (bp) =    24 x    18 x    18 =        7776
InitMesh: Mesh cutoff (required, used) =   100.000   108.450 Ry
ExtMesh (bp) on 0 =    60 x    45 x    41 =      110700
New grid distribution:   2
           1       8:   24    6:   18    1:    6
           2       8:   24    1:    5    7:   18
           3       8:   24    1:    5    1:    6
           4       1:    7    1:    5    7:   18
           5       1:    7    6:   18    1:    6
           6       8:   24    6:   18    7:   18
           7       1:    7    6:   18    7:   18
           8       1:    7    1:    5    1:    6
New grid distribution:   3
           1      11:   24    7:   18    1:    8
           2       1:   10    7:   18    1:    8
           3      11:   24    1:    6    9:   18
           4       1:   10    1:    6    9:   18
           5      11:   24    1:    6    1:    8
           6       1:   10    1:    6    1:    8
           7      11:   24    7:   18    9:   18
           8       1:   10    7:   18    9:   18
Setting up quadratic distribution...
ExtMesh (bp) on 0 =    53 x    49 x    42 =      109074
PhiOnMesh: Number of (b)points on node 0 =                 1326
PhiOnMesh: nlist on node 0 =                 5418

        iscf     Eharris(eV)        E_KS(eV)     FreeEng(eV)     dDmax    Ef(eV) dHmax(eV)
   scf:    1     -465.862820     -465.838312     -465.838312  0.003488 -2.092104  0.030402
   scf:    2     -465.838162     -465.838278     -465.838278  0.001254 -2.108910  0.049092
   scf:    3     -465.838349     -465.838330     -465.838330  0.000773 -2.098206  0.001373
   scf:    4     -465.838330     -465.838330     -465.838330  0.000039 -2.098264  0.001011
   scf:    5     -465.838330     -465.838330     -465.838330  0.000074 -2.098428  0.000412

SCF Convergence by DM+H criterion
max |DM_out - DM_in|         :     0.0000743485
max |H_out - H_in|      (eV) :     0.0004115885
SCF cycle converged after 5 iterations

Using DM_out to compute the final energy and forces
No. of atoms with KB's overlaping orbs in proc 0. Max # of overlaps:       3      23

siesta: E_KS(eV) =             -465.8383

siesta: Atomic forces (eV/Ang):
----------------------------------------
   Tot   -0.001256   -0.032416    0.000000
----------------------------------------
   Max    0.085478
   Res    0.041388    sqrt( Sum f_i^2 / 3N )
----------------------------------------
   Max    0.085478    constrained

Stress-tensor-Voigt (kbar):       -0.92       -0.01       -1.01        0.00        0.00       -0.00
(Free)E + p*V (eV/cell)     -465.7435
Target enthalpy (eV/cell)     -465.8383

                     ====================================
                        LUA coord. step =      7
                     ====================================

outcell: Unit cell vectors (Ang):
        7.286412    0.000000    0.000000
        0.000000    5.746952    0.000000
        0.000000    0.000000    5.621012

outcell: Cell vector modules (Ang)   :    7.286412    5.746952    5.621012
outcell: Cell angles (23,13,12) (deg):     90.0000     90.0000     90.0000
outcell: Cell volume (Ang**3)        :    235.3780
<dSpData1D:S at geom step 7
  <sparsity:sparsity for geom step 7
    nrows_g=23 nrows=3 sparsity=.1304 nnzs=69, refcount: 7>
  <dData1D:(new from dSpData1D) n=69, refcount: 1>
refcount: 1>
new_DM -- step:     8
Re-using DM from previous geometries...
Number of DMs in history: 1
 DM extrapolation coefficients: 
1   1.00000
New DM after history re-use:
<dSpData2D:SpM extrapolated using coords
  <sparsity:sparsity for geom step 7
    nrows_g=23 nrows=3 sparsity=.1304 nnzs=69, refcount: 8>
  <dData2D:(temp array for extrapolation) n=69 m=1, refcount: 1>
refcount: 1>
No. of atoms with KB's overlaping orbs in proc 0. Max # of overlaps:       3      23
New grid distribution:   1
           1       1:   24    1:    9    1:    5
           2       1:   24    1:    9    6:   10
           3       1:   24    1:    9   11:   14
           4       1:   24    1:    9   15:   18
           5       1:   24   10:   18    1:    5
           6       1:   24   10:   18    6:   10
           7       1:   24   10:   18   11:   14
           8       1:   24   10:   18   15:   18

InitMesh: MESH =    48 x    36 x    36 =       62208
InitMesh: (bp) =    24 x    18 x    18 =        7776
InitMesh: Mesh cutoff (required, used) =   100.000   108.450 Ry
ExtMesh (bp) on 0 =    60 x    45 x    41 =      110700
New grid distribution:   2
           1       8:   24    6:   18    1:    6
           2       8:   24    1:    5    7:   18
           3       8:   24    1:    5    1:    6
           4       1:    7    1:    5    7:   18
           5       1:    7    6:   18    1:    6
           6       8:   24    6:   18    7:   18
           7       1:    7    6:   18    7:   18
           8       1:    7    1:    5    1:    6
New grid distribution:   3
           1      11:   24    7:   18    1:    8
           2       1:   10    7:   18    1:    8
           3      11:   24    1:    6    9:   18
           4       1:   10    1:    6    9:   18
           5      11:   24    1:    6    1:    8
           6       1:   10    1:    6    1:    8
           7      11:   24    7:   18    9:   18
           8       1:   10    7:   18    9:   18
Setting up quadratic distribution...
ExtMesh (bp) on 0 =    53 x    49 x    42 =      109074
PhiOnMesh: Number of (b)points on node 0 =                 1326
PhiOnMesh: nlist on node 0 =                 5414

        iscf     Eharris(eV)        E_KS(eV)     FreeEng(eV)     dDmax    Ef(eV) dHmax(eV)
   scf:    1     -465.866102     -465.838377     -465.838377  0.004172 -2.082839  0.032373
   scf:    2     -465.838210     -465.838339     -465.838339  0.001316 -2.100012  0.051564
   scf:    3     -465.838419     -465.838398     -465.838398  0.000812 -2.089023  0.001650
   scf:    4     -465.838398     -465.838398     -465.838398  0.000046 -2.089055  0.001224
   scf:    5     -465.838398     -465.838398     -465.838398  0.000086 -2.089192  0.000489

SCF Convergence by DM+H criterion
max |DM_out - DM_in|         :     0.0000860303
max |H_out - H_in|      (eV) :     0.0004890586
SCF cycle converged after 5 iterations

Using DM_out to compute the final energy and forces
No. of atoms with KB's overlaping orbs in proc 0. Max # of overlaps:       3      23

siesta: E_KS(eV) =             -465.8384

siesta: Atomic forces (eV/Ang):
----------------------------------------
   Tot    0.001559   -0.031670    0.000000
----------------------------------------
   Max    0.148812
   Res    0.069912    sqrt( Sum f_i^2 / 3N )
----------------------------------------
   Max    0.106935    constrained

Stress-tensor-Voigt (kbar):        0.31        0.46       -1.01       -0.13        0.00       -0.00
(Free)E + p*V (eV/cell)     -465.8270
Target enthalpy (eV/cell)     -465.8384

                     ====================================
                        LUA coord. step =      8
                     ====================================

outcell: Unit cell vectors (Ang):
        7.286412    0.000000    0.000000
        0.000000    5.746952    0.000000
        0.000000    0.000000    5.621012

outcell: Cell vector modules (Ang)   :    7.286412    5.746952    5.621012
outcell: Cell angles (23,13,12) (deg):     90.0000     90.0000     90.0000
outcell: Cell volume (Ang**3)        :    235.3780
<dSpData1D:S at geom step 8
  <sparsity:sparsity for geom step 8
    nrows_g=23 nrows=3 sparsity=.1304 nnzs=69, refcount: 7>
  <dData1D:(new from dSpData1D) n=69, refcount: 1>
refcount: 1>
new_DM -- step:     9
Re-using DM from previous geometries...
Number of DMs in history: 1
 DM extrapolation coefficients: 
1   1.00000
New DM after history re-use:
<dSpData2D:SpM extrapolated using coords
  <sparsity:sparsity for geom step 8
    nrows_g=23 nrows=3 sparsity=.1304 nnzs=69, refcount: 8>
  <dData2D:(temp array for extrapolation) n=69 m=1, refcount: 1>
refcount: 1>
No. of atoms with KB's overlaping orbs in proc 0. Max # of overlaps:       3      23
New grid distribution:   1
           1       1:   24    1:    9    1:    5
           2       1:   24    1:    9    6:   10
           3       1:   24    1:    9   11:   14
           4       1:   24    1:    9   15:   18
           5       1:   24   10:   18    1:    5
           6       1:   24   10:   18    6:   10
           7       1:   24   10:   18   11:   14
           8       1:   24   10:   18   15:   18

InitMesh: MESH =    48 x    36 x    36 =       62208
InitMesh: (bp) =    24 x    18 x    18 =        7776
InitMesh: Mesh cutoff (required, used) =   100.000   108.450 Ry
ExtMesh (bp) on 0 =    60 x    45 x    41 =      110700
New grid distribution:   2
           1       8:   24    6:   18    1:    6
           2       8:   24    1:    5    7:   18
           3       8:   24    1:    5    1:    6
           4       1:    7    1:    5    7:   18
           5       1:    7    6:   18    1:    6
           6       8:   24    6:   18    7:   18
           7       1:    7    6:   18    7:   18
           8       1:    7    1:    5    1:    6
New grid distribution:   3
           1      11:   24    7:   18    1:    8
           2       1:   10    7:   18    1:    8
           3      11:   24    1:    6    9:   18
           4       1:   10    1:    6    9:   18
           5      11:   24    1:    6    1:    8
           6       1:   10    1:    6    1:    8
           7      11:   24    7:   18    9:   18
           8       1:   10    7:   18    9:   18
Setting up quadratic distribution...
ExtMesh (bp) on 0 =    53 x    49 x    42 =      109074
PhiOnMesh: Number of (b)points on node 0 =                 1326
PhiOnMesh: nlist on node 0 =                 5414

        iscf     Eharris(eV)        E_KS(eV)     FreeEng(eV)     dDmax    Ef(eV) dHmax(eV)
   scf:    1     -465.837987     -465.838408     -465.838408  0.000101 -2.089480  0.000836
   scf:    2     -465.838408     -465.838408     -465.838408  0.000040 -2.088924  0.001353
   scf:    3     -465.838408     -465.838408     -465.838408  0.000024 -2.089263  0.000057

SCF Convergence by DM+H criterion
max |DM_out - DM_in|         :     0.0000239546
max |H_out - H_in|      (eV) :     0.0000568045
SCF cycle converged after 3 iterations

Using DM_out to compute the final energy and forces
No. of atoms with KB's overlaping orbs in proc 0. Max # of overlaps:       3      23

siesta: E_KS(eV) =             -465.8384

siesta: Atomic forces (eV/Ang):
----------------------------------------
   Tot    0.001541   -0.031685    0.000000
----------------------------------------
   Max    0.146233
   Res    0.068659    sqrt( Sum f_i^2 / 3N )
----------------------------------------
   Max    0.105362    constrained

Stress-tensor-Voigt (kbar):        0.30        0.45       -1.01       -0.12        0.00       -0.00
(Free)E + p*V (eV/cell)     -465.8258
Target enthalpy (eV/cell)     -465.8384

                     ====================================
                        LUA coord. step =      9
                     ====================================

outcell: Unit cell vectors (Ang):
        7.286412    0.000000    0.000000
        0.000000    5.746952    0.000000
        0.000000    0.000000    5.621012

outcell: Cell vector modules (Ang)   :    7.286412    5.746952    5.621012
outcell: Cell angles (23,13,12) (deg):     90.0000     90.0000     90.0000
outcell: Cell volume (Ang**3)        :    235.3780
<dSpData1D:S at geom step 9
  <sparsity:sparsity for geom step 9
    nrows_g=23 nrows=3 sparsity=.1304 nnzs=69, refcount: 7>
  <dData1D:(new from dSpData1D) n=69, refcount: 1>
refcount: 1>
new_DM -- step:    10
Re-using DM from previous geometries...
Number of DMs in history: 1
 DM extrapolation coefficients: 
1   1.00000
New DM after history re-use:
<dSpData2D:SpM extrapolated using coords
  <sparsity:sparsity for geom step 9
    nrows_g=23 nrows=3 sparsity=.1304 nnzs=69, refcount: 8>
  <dData2D:(temp array for extrapolation) n=69 m=1, refcount: 1>
refcount: 1>
No. of atoms with KB's overlaping orbs in proc 0. Max # of overlaps:       3      23
New grid distribution:   1
           1       1:   24    1:    9    1:    5
           2       1:   24    1:    9    6:   10
           3       1:   24    1:    9   11:   14
           4       1:   24    1:    9   15:   18
           5       1:   24   10:   18    1:    5
           6       1:   24   10:   18    6:   10
           7       1:   24   10:   18   11:   14
           8       1:   24   10:   18   15:   18

InitMesh: MESH =    48 x    36 x    36 =       62208
InitMesh: (bp) =    24 x    18 x    18 =        7776
InitMesh: Mesh cutoff (required, used) =   100.000   108.450 Ry
ExtMesh (bp) on 0 =    60 x    45 x    41 =      110700
New grid distribution:   2
           1       8:   24    6:   18    1:    6
           2       8:   24    1:    5    7:   18
           3       8:   24    1:    5    1:    6
           4       1:    7    1:    5    7:   18
           5       1:    7    6:   18    1:    6
           6       8:   24    6:   18    7:   18
           7       1:    7    6:   18    7:   18
           8       1:    7    1:    5    1:    6
New grid distribution:   3
           1      11:   24    7:   18    1:    8
           2       1:   10    7:   18    1:    8
           3      11:   24    1:    6    9:   18
           4       1:   10    1:    6    9:   18
           5      11:   24    1:    6    1:    8
           6       1:   10    1:    6    1:    8
           7      11:   24    7:   18    9:   18
           8       1:   10    7:   18    9:   18
Setting up quadratic distribution...
ExtMesh (bp) on 0 =    53 x    49 x    42 =      109074
PhiOnMesh: Number of (b)points on node 0 =                 1326
PhiOnMesh: nlist on node 0 =                 5414

        iscf     Eharris(eV)        E_KS(eV)     FreeEng(eV)     dDmax    Ef(eV) dHmax(eV)
   scf:    1     -465.837182     -465.838436     -465.838436  0.000222 -2.089382  0.002503
   scf:    2     -465.838435     -465.838436     -465.838436  0.000108 -2.087837  0.004217
   scf:    3     -465.838437     -465.838437     -465.838437  0.000067 -2.088811  0.000099

SCF Convergence by DM+H criterion
max |DM_out - DM_in|         :     0.0000670968
max |H_out - H_in|      (eV) :     0.0000987386
SCF cycle converged after 3 iterations

Using DM_out to compute the final energy and forces
No. of atoms with KB's overlaping orbs in proc 0. Max # of overlaps:       3      23

siesta: E_KS(eV) =             -465.8384

siesta: Atomic forces (eV/Ang):
----------------------------------------
   Tot    0.001458   -0.031714    0.000000
----------------------------------------
   Max    0.139220
   Res    0.065170    sqrt( Sum f_i^2 / 3N )
----------------------------------------
   Max    0.101162    constrained

Stress-tensor-Voigt (kbar):        0.25        0.42       -1.01       -0.12        0.00       -0.00
(Free)E + p*V (eV/cell)     -465.8220
Target enthalpy (eV/cell)     -465.8384

                     ====================================
                        LUA coord. step =     10
                     ====================================

outcell: Unit cell vectors (Ang):
        7.286412    0.000000    0.000000
        0.000000    5.746952    0.000000
        0.000000    0.000000    5.621012

outcell: Cell vector modules (Ang)   :    7.286412    5.746952    5.621012
outcell: Cell angles (23,13,12) (deg):     90.0000     90.0000     90.0000
outcell: Cell volume (Ang**3)        :    235.3780
<dSpData1D:S at geom step 10
  <sparsity:sparsity for geom step 10
    nrows_g=23 nrows=3 sparsity=.1304 nnzs=69, refcount: 7>
  <dData1D:(new from dSpData1D) n=69, refcount: 1>
refcount: 1>
new_DM -- step:    11
Re-using DM from previous geometries...
Number of DMs in history: 1
 DM extrapolation coefficients: 
1   1.00000
New DM after history re-use:
<dSpData2D:SpM extrapolated using coords
  <sparsity:sparsity for geom step 10
    nrows_g=23 nrows=3 sparsity=.1304 nnzs=69, refcount: 8>
  <dData2D:(temp array for extrapolation) n=69 m=1, refcount: 1>
refcount: 1>
No. of atoms with KB's overlaping orbs in proc 0. Max # of overlaps:       3      23
New grid distribution:   1
           1       1:   24    1:    9    1:    5
           2       1:   24    1:    9    6:   10
           3       1:   24    1:    9   11:   14
           4       1:   24    1:    9   15:   18
           5       1:   24   10:   18    1:    5
           6       1:   24   10:   18    6:   10
           7       1:   24   10:   18   11:   14
           8       1:   24   10:   18   15:   18

InitMesh: MESH =    48 x    36 x    36 =       62208
InitMesh: (bp) =    24 x    18 x    18 =        7776
InitMesh: Mesh cutoff (required, used) =   100.000   108.450 Ry
ExtMesh (bp) on 0 =    60 x    45 x    41 =      110700
New grid distribution:   2
           1       8:   24    6:   18    1:    6
           2       8:   24    1:    5    7:   18
           3       8:   24    1:    5    1:    6
           4       1:    7    1:    5    7:   18
           5       1:    7    6:   18    1:    6
           6       8:   24    6:   18    7:   18
           7       1:    7    6:   18    7:   18
           8       1:    7    1:    5    1:    6
New grid distribution:   3
           1      11:   24    7:   18    1:    8
           2       1:   10    7:   18    1:    8
           3      11:   24    1:    6    9:   18
           4       1:   10    1:    6    9:   18
           5      11:   24    1:    6    1:    8
           6       1:   10    1:    6    1:    8
           7      11:   24    7:   18    9:   18
           8       1:   10    7:   18    9:   18
Setting up quadratic distribution...
ExtMesh (bp) on 0 =    53 x    49 x    42 =      109074
PhiOnMesh: Number of (b)points on node 0 =                 1326
PhiOnMesh: nlist on node 0 =                 5414

        iscf     Eharris(eV)        E_KS(eV)     FreeEng(eV)     dDmax    Ef(eV) dHmax(eV)
   scf:    1     -465.836434     -465.838480     -465.838480  0.000362 -2.089007  0.004103
   scf:    2     -465.838477     -465.838479     -465.838479  0.000178 -2.086466  0.006906
   scf:    3     -465.838480     -465.838480     -465.838480  0.000110 -2.088067  0.000157
   scf:    4     -465.838480     -465.838480     -465.838480  0.000003 -2.088050  0.000101

SCF Convergence by DM+H criterion
max |DM_out - DM_in|         :     0.0000031234
max |H_out - H_in|      (eV) :     0.0001008526
SCF cycle converged after 4 iterations

Using DM_out to compute the final energy and forces
No. of atoms with KB's overlaping orbs in proc 0. Max # of overlaps:       3      23

siesta: E_KS(eV) =             -465.8385

siesta: Atomic forces (eV/Ang):
----------------------------------------
   Tot    0.001373   -0.031792    0.000000
----------------------------------------
   Max    0.127694
   Res    0.059524    sqrt( Sum f_i^2 / 3N )
----------------------------------------
   Max    0.094236    constrained

Stress-tensor-Voigt (kbar):        0.17        0.38       -1.01       -0.10        0.00       -0.00
(Free)E + p*V (eV/cell)     -465.8160
Target enthalpy (eV/cell)     -465.8385

                     ====================================
                        LUA coord. step =     11
                     ====================================

outcell: Unit cell vectors (Ang):
        7.286412    0.000000    0.000000
        0.000000    5.746952    0.000000
        0.000000    0.000000    5.621012

outcell: Cell vector modules (Ang)   :    7.286412    5.746952    5.621012
outcell: Cell angles (23,13,12) (deg):     90.0000     90.0000     90.0000
outcell: Cell volume (Ang**3)        :    235.3780
<dSpData1D:S at geom step 11
  <sparsity:sparsity for geom step 11
    nrows_g=23 nrows=3 sparsity=.1304 nnzs=69, refcount: 7>
  <dData1D:(new from dSpData1D) n=69, refcount: 1>
refcount: 1>
new_DM -- step:    12
Re-using DM from previous geometries...
Number of DMs in history: 1
 DM extrapolation coefficients: 
1   1.00000
New DM after history re-use:
<dSpData2D:SpM extrapolated using coords
  <sparsity:sparsity for geom step 11
    nrows_g=23 nrows=3 sparsity=.1304 nnzs=69, refcount: 8>
  <dData2D:(temp array for extrapolation) n=69 m=1, refcount: 1>
refcount: 1>
No. of atoms with KB's overlaping orbs in proc 0. Max # of overlaps:       3      23
New grid distribution:   1
           1       1:   24    1:    9    1:    5
           2       1:   24    1:    9    6:   10
           3       1:   24    1:    9   11:   14
           4       1:   24    1:    9   15:   18
           5       1:   24   10:   18    1:    5
           6       1:   24   10:   18    6:   10
           7       1:   24   10:   18   11:   14
           8       1:   24   10:   18   15:   18

InitMesh: MESH =    48 x    36 x    36 =       62208
InitMesh: (bp) =    24 x    18 x    18 =        7776
InitMesh: Mesh cutoff (required, used) =   100.000   108.450 Ry
ExtMesh (bp) on 0 =    60 x    45 x    41 =      110700
New grid distribution:   2
           1       8:   24    6:   18    1:    6
           2       8:   24    1:    5    7:   18
           3       8:   24    1:    5    1:    6
           4       1:    7    1:    5    7:   18
           5       1:    7    6:   18    1:    6
           6       8:   24    6:   18    7:   18
           7       1:    7    6:   18    7:   18
           8       1:    7    1:    5    1:    6
New grid distribution:   3
           1      11:   24    7:   18    1:    8
           2       1:   10    7:   18    1:    8
           3      11:   24    1:    6    9:   18
           4       1:   10    1:    6    9:   18
           5      11:   24    1:    6    1:    8
           6       1:   10    1:    6    1:    8
           7      11:   24    7:   18    9:   18
           8       1:   10    7:   18    9:   18
Setting up quadratic distribution...
ExtMesh (bp) on 0 =    53 x    49 x    42 =      109074
PhiOnMesh: Number of (b)points on node 0 =                 1326
PhiOnMesh: nlist on node 0 =                 5414

        iscf     Eharris(eV)        E_KS(eV)     FreeEng(eV)     dDmax    Ef(eV) dHmax(eV)
   scf:    1     -465.835782     -465.838532     -465.838532  0.000491 -2.088285  0.005572
   scf:    2     -465.838527     -465.838531     -465.838531  0.000241 -2.084836  0.009357
   scf:    3     -465.838534     -465.838533     -465.838533  0.000149 -2.087009  0.000216
   scf:    4     -465.838533     -465.838533     -465.838533  0.000004 -2.086985  0.000138

SCF Convergence by DM+H criterion
max |DM_out - DM_in|         :     0.0000042213
max |H_out - H_in|      (eV) :     0.0001381529
SCF cycle converged after 4 iterations

Using DM_out to compute the final energy and forces
No. of atoms with KB's overlaping orbs in proc 0. Max # of overlaps:       3      23

siesta: E_KS(eV) =             -465.8385

siesta: Atomic forces (eV/Ang):
----------------------------------------
   Tot    0.001263   -0.031898    0.000000
----------------------------------------
   Max    0.112091
   Res    0.052093    sqrt( Sum f_i^2 / 3N )
----------------------------------------
   Max    0.084893    constrained

Stress-tensor-Voigt (kbar):        0.07        0.32       -1.01       -0.08        0.00       -0.00
(Free)E + p*V (eV/cell)     -465.8079
Target enthalpy (eV/cell)     -465.8385

                     ====================================
                        LUA coord. step =     12
                     ====================================

outcell: Unit cell vectors (Ang):
        7.286412    0.000000    0.000000
        0.000000    5.746952    0.000000
        0.000000    0.000000    5.621012

outcell: Cell vector modules (Ang)   :    7.286412    5.746952    5.621012
outcell: Cell angles (23,13,12) (deg):     90.0000     90.0000     90.0000
outcell: Cell volume (Ang**3)        :    235.3780
<dSpData1D:S at geom step 12
  <sparsity:sparsity for geom step 12
    nrows_g=23 nrows=3 sparsity=.1304 nnzs=69, refcount: 7>
  <dData1D:(new from dSpData1D) n=69, refcount: 1>
refcount: 1>
new_DM -- step:    13
Re-using DM from previous geometries...
Number of DMs in history: 1
 DM extrapolation coefficients: 
1   1.00000
New DM after history re-use:
<dSpData2D:SpM extrapolated using coords
  <sparsity:sparsity for geom step 12
    nrows_g=23 nrows=3 sparsity=.1304 nnzs=69, refcount: 8>
  <dData2D:(temp array for extrapolation) n=69 m=1, refcount: 1>
refcount: 1>
No. of atoms with KB's overlaping orbs in proc 0. Max # of overlaps:       3      23
New grid distribution:   1
           1       1:   24    1:    9    1:    5
           2       1:   24    1:    9    6:   10
           3       1:   24    1:    9   11:   14
           4       1:   24    1:    9   15:   18
           5       1:   24   10:   18    1:    5
           6       1:   24   10:   18    6:   10
           7       1:   24   10:   18   11:   14
           8       1:   24   10:   18   15:   18

InitMesh: MESH =    48 x    36 x    36 =       62208
InitMesh: (bp) =    24 x    18 x    18 =        7776
InitMesh: Mesh cutoff (required, used) =   100.000   108.450 Ry
ExtMesh (bp) on 0 =    60 x    45 x    41 =      110700
New grid distribution:   2
           1       8:   24    6:   18    1:    6
           2       8:   24    1:    5    7:   18
           3       8:   24    1:    5    1:    6
           4       1:    7    1:    5    7:   18
           5       1:    7    6:   18    1:    6
           6       8:   24    6:   18    7:   18
           7       1:    7    6:   18    7:   18
           8       1:    7    1:    5    1:    6
New grid distribution:   3
           1      11:   24    7:   18    1:    8
           2       1:   10    7:   18    1:    8
           3      11:   24    1:    6    9:   18
           4       1:   10    1:    6    9:   18
           5      11:   24    1:    6    1:    8
           6       1:   10    1:    6    1:    8
           7      11:   24    7:   18    9:   18
           8       1:   10    7:   18    9:   18
Setting up quadratic distribution...
ExtMesh (bp) on 0 =    53 x    49 x    42 =      109074
PhiOnMesh: Number of (b)points on node 0 =                 1326
PhiOnMesh: nlist on node 0 =                 5414

        iscf     Eharris(eV)        E_KS(eV)     FreeEng(eV)     dDmax    Ef(eV) dHmax(eV)
   scf:    1     -465.835267     -465.838588     -465.838588  0.000598 -2.087202  0.006873
   scf:    2     -465.838580     -465.838586     -465.838586  0.000296 -2.082947  0.011514
   scf:    3     -465.838590     -465.838589     -465.838589  0.000183 -2.085626  0.000262
   scf:    4     -465.838589     -465.838589     -465.838589  0.000005 -2.085596  0.000167

SCF Convergence by DM+H criterion
max |DM_out - DM_in|         :     0.0000050496
max |H_out - H_in|      (eV) :     0.0001671773
SCF cycle converged after 4 iterations

Using DM_out to compute the final energy and forces
No. of atoms with KB's overlaping orbs in proc 0. Max # of overlaps:       3      23

siesta: E_KS(eV) =             -465.8386

siesta: Atomic forces (eV/Ang):
----------------------------------------
   Tot    0.001133   -0.032031    0.000000
----------------------------------------
   Max    0.093022
   Res    0.043475    sqrt( Sum f_i^2 / 3N )
----------------------------------------
   Max    0.073498    constrained

Stress-tensor-Voigt (kbar):       -0.06        0.24       -1.01       -0.06        0.00       -0.00
(Free)E + p*V (eV/cell)     -465.7981
Target enthalpy (eV/cell)     -465.8386

                     ====================================
                        LUA coord. step =     13
                     ====================================

outcell: Unit cell vectors (Ang):
        7.286412    0.000000    0.000000
        0.000000    5.746952    0.000000
        0.000000    0.000000    5.621012

outcell: Cell vector modules (Ang)   :    7.286412    5.746952    5.621012
outcell: Cell angles (23,13,12) (deg):     90.0000     90.0000     90.0000
outcell: Cell volume (Ang**3)        :    235.3780
<dSpData1D:S at geom step 13
  <sparsity:sparsity for geom step 13
    nrows_g=23 nrows=3 sparsity=.1304 nnzs=69, refcount: 7>
  <dData1D:(new from dSpData1D) n=69, refcount: 1>
refcount: 1>
new_DM -- step:    14
Re-using DM from previous geometries...
Number of DMs in history: 1
 DM extrapolation coefficients: 
1   1.00000
New DM after history re-use:
<dSpData2D:SpM extrapolated using coords
  <sparsity:sparsity for geom step 13
    nrows_g=23 nrows=3 sparsity=.1304 nnzs=69, refcount: 8>
  <dData2D:(temp array for extrapolation) n=69 m=1, refcount: 1>
refcount: 1>
No. of atoms with KB's overlaping orbs in proc 0. Max # of overlaps:       3      23
New grid distribution:   1
           1       1:   24    1:    9    1:    5
           2       1:   24    1:    9    6:   10
           3       1:   24    1:    9   11:   14
           4       1:   24    1:    9   15:   18
           5       1:   24   10:   18    1:    5
           6       1:   24   10:   18    6:   10
           7       1:   24   10:   18   11:   14
           8       1:   24   10:   18   15:   18

InitMesh: MESH =    48 x    36 x    36 =       62208
InitMesh: (bp) =    24 x    18 x    18 =        7776
InitMesh: Mesh cutoff (required, used) =   100.000   108.450 Ry
ExtMesh (bp) on 0 =    60 x    45 x    41 =      110700
New grid distribution:   2
           1       8:   24    6:   18    1:    6
           2       8:   24    1:    5    7:   18
           3       8:   24    1:    5    1:    6
           4       1:    7    1:    5    7:   18
           5       1:    7    6:   18    1:    6
           6       8:   24    6:   18    7:   18
           7       1:    7    6:   18    7:   18
           8       1:    7    1:    5    1:    6
New grid distribution:   3
           1      11:   24    7:   18    1:    8
           2       1:   10    7:   18    1:    8
           3      11:   24    1:    6    9:   18
           4       1:   10    1:    6    9:   18
           5      11:   24    1:    6    1:    8
           6       1:   10    1:    6    1:    8
           7      11:   24    7:   18    9:   18
           8       1:   10    7:   18    9:   18
Setting up quadratic distribution...
ExtMesh (bp) on 0 =    53 x    49 x    42 =      109074
PhiOnMesh: Number of (b)points on node 0 =                 1326
PhiOnMesh: nlist on node 0 =                 5418

        iscf     Eharris(eV)        E_KS(eV)     FreeEng(eV)     dDmax    Ef(eV) dHmax(eV)
   scf:    1     -465.834941     -465.838640     -465.838640  0.000676 -2.085718  0.007920
   scf:    2     -465.838629     -465.838637     -465.838637  0.000340 -2.080815  0.013216
   scf:    3     -465.838642     -465.838641     -465.838641  0.000211 -2.083899  0.000295
   scf:    4     -465.838641     -465.838641     -465.838641  0.000006 -2.083864  0.000188

SCF Convergence by DM+H criterion
max |DM_out - DM_in|         :     0.0000055673
max |H_out - H_in|      (eV) :     0.0001877919
SCF cycle converged after 4 iterations

Using DM_out to compute the final energy and forces
No. of atoms with KB's overlaping orbs in proc 0. Max # of overlaps:       3      23

siesta: E_KS(eV) =             -465.8386

siesta: Atomic forces (eV/Ang):
----------------------------------------
   Tot    0.000774   -0.032144    0.000000
----------------------------------------
   Max    0.071366
   Res    0.034672    sqrt( Sum f_i^2 / 3N )
----------------------------------------
   Max    0.060560    constrained

Stress-tensor-Voigt (kbar):       -0.20        0.15       -1.01       -0.03        0.00       -0.00
(Free)E + p*V (eV/cell)     -465.7870
Target enthalpy (eV/cell)     -465.8386

                     ====================================
                        LUA coord. step =     14
                     ====================================

outcell: Unit cell vectors (Ang):
        7.286412    0.000000    0.000000
        0.000000    5.746952    0.000000
        0.000000    0.000000    5.621012

outcell: Cell vector modules (Ang)   :    7.286412    5.746952    5.621012
outcell: Cell angles (23,13,12) (deg):     90.0000     90.0000     90.0000
outcell: Cell volume (Ang**3)        :    235.3780
<dSpData1D:S at geom step 14
  <sparsity:sparsity for geom step 14
    nrows_g=23 nrows=3 sparsity=.1304 nnzs=69, refcount: 7>
  <dData1D:(new from dSpData1D) n=69, refcount: 1>
refcount: 1>
new_DM -- step:    15
Re-using DM from previous geometries...
Number of DMs in history: 1
 DM extrapolation coefficients: 
1   1.00000
New DM after history re-use:
<dSpData2D:SpM extrapolated using coords
  <sparsity:sparsity for geom step 14
    nrows_g=23 nrows=3 sparsity=.1304 nnzs=69, refcount: 8>
  <dData2D:(temp array for extrapolation) n=69 m=1, refcount: 1>
refcount: 1>
No. of atoms with KB's overlaping orbs in proc 0. Max # of overlaps:       3      23
New grid distribution:   1
[...]
   scf:    2     -465.838740     -465.838755     -465.838755  0.000466 -2.070337  0.018063
   scf:    3     -465.838764     -465.838761     -465.838761  0.000288 -2.074651  0.000408
   scf:    4     -465.838761     -465.838761     -465.838761  0.000006 -2.074596  0.000293

SCF Convergence by DM+H criterion
max |DM_out - DM_in|         :     0.0000059798
max |H_out - H_in|      (eV) :     0.0002925666
SCF cycle converged after 4 iterations

Using DM_out to compute the final energy and forces
No. of atoms with KB's overlaping orbs in proc 0. Max # of overlaps:       3      23

siesta: E_KS(eV) =             -465.8388

siesta: Atomic forces (eV/Ang):
----------------------------------------
   Tot    0.000525   -0.032734    0.000000
----------------------------------------
   Max    0.061997
   Res    0.026363    sqrt( Sum f_i^2 / 3N )
----------------------------------------
   Max    0.061997    constrained

Stress-tensor-Voigt (kbar):       -0.63       -0.17       -1.01        0.06        0.00        0.00
(Free)E + p*V (eV/cell)     -465.7504
Target enthalpy (eV/cell)     -465.8388

                     ====================================
                        LUA coord. step =     17
                     ====================================

outcell: Unit cell vectors (Ang):
        7.286412    0.000000    0.000000
        0.000000    5.746952    0.000000
        0.000000    0.000000    5.621012

outcell: Cell vector modules (Ang)   :    7.286412    5.746952    5.621012
outcell: Cell angles (23,13,12) (deg):     90.0000     90.0000     90.0000
outcell: Cell volume (Ang**3)        :    235.3780
<dSpData1D:S at geom step 17
  <sparsity:sparsity for geom step 17
    nrows_g=23 nrows=3 sparsity=.1304 nnzs=69, refcount: 7>
  <dData1D:(new from dSpData1D) n=69, refcount: 1>
refcount: 1>
new_DM -- step:    18
Re-using DM from previous geometries...
Number of DMs in history: 1
 DM extrapolation coefficients: 
1   1.00000
New DM after history re-use:
<dSpData2D:SpM extrapolated using coords
  <sparsity:sparsity for geom step 17
    nrows_g=23 nrows=3 sparsity=.1304 nnzs=69, refcount: 8>
  <dData2D:(temp array for extrapolation) n=69 m=1, refcount: 1>
refcount: 1>
No. of atoms with KB's overlaping orbs in proc 0. Max # of overlaps:       3      23
New grid distribution:   1
           1       1:   24    1:    9    1:    5
           2       1:   24    1:    9    6:   10
           3       1:   24    1:    9   11:   14
           4       1:   24    1:    9   15:   18
           5       1:   24   10:   18    1:    5
           6       1:   24   10:   18    6:   10
           7       1:   24   10:   18   11:   14
           8       1:   24   10:   18   15:   18

InitMesh: MESH =    48 x    36 x    36 =       62208
InitMesh: (bp) =    24 x    18 x    18 =        7776
InitMesh: Mesh cutoff (required, used) =   100.000   108.450 Ry
ExtMesh (bp) on 0 =    60 x    45 x    41 =      110700
New grid distribution:   2
           1       8:   24    6:   18    1:    6
           2       8:   24    1:    5    7:   18
           3       8:   24    1:    5    1:    6
           4       1:    7    1:    5    7:   18
           5       1:    7    6:   18    1:    6
           6       8:   24    6:   18    7:   18
           7       1:    7    6:   18    7:   18
           8       1:    7    1:    5    1:    6
New grid distribution:   3
           1      11:   24    7:   18    1:    8
           2       1:   10    7:   18    1:    8
           3      11:   24    1:    6    9:   18
           4       1:   10    1:    6    9:   18
           5      11:   24    1:    6    1:    8
           6       1:   10    1:    6    1:    8
           7      11:   24    7:   18    9:   18
           8       1:   10    7:   18    9:   18
Setting up quadratic distribution...
ExtMesh (bp) on 0 =    53 x    49 x    42 =      109074
PhiOnMesh: Number of (b)points on node 0 =                 1326
PhiOnMesh: nlist on node 0 =                 5418

        iscf     Eharris(eV)        E_KS(eV)     FreeEng(eV)     dDmax    Ef(eV) dHmax(eV)
   scf:    1     -465.836174     -465.838793     -465.838793  0.000818 -2.072400  0.010579
   scf:    2     -465.838777     -465.838790     -465.838790  0.000433 -2.065868  0.016773
   scf:    3     -465.838797     -465.838795     -465.838795  0.000268 -2.069936  0.000449
   scf:    4     -465.838795     -465.838795     -465.838795  0.000006 -2.069882  0.000322

SCF Convergence by DM+H criterion
max |DM_out - DM_in|         :     0.0000061055
max |H_out - H_in|      (eV) :     0.0003216543
SCF cycle converged after 4 iterations

Using DM_out to compute the final energy and forces
No. of atoms with KB's overlaping orbs in proc 0. Max # of overlaps:       3      23

siesta: E_KS(eV) =             -465.8388

siesta: Atomic forces (eV/Ang):
----------------------------------------
   Tot    0.000662   -0.032904   -0.000000
----------------------------------------
   Max    0.070909
   Res    0.030927    sqrt( Sum f_i^2 / 3N )
----------------------------------------
   Max    0.070909    constrained

Stress-tensor-Voigt (kbar):       -0.70       -0.26       -1.01        0.08        0.00        0.00
(Free)E + p*V (eV/cell)     -465.7426
Target enthalpy (eV/cell)     -465.8388

                     ====================================
                        LUA coord. step =     18
                     ====================================

outcell: Unit cell vectors (Ang):
        7.286412    0.000000    0.000000
        0.000000    5.746952    0.000000
        0.000000    0.000000    5.621012

outcell: Cell vector modules (Ang)   :    7.286412    5.746952    5.621012
outcell: Cell angles (23,13,12) (deg):     90.0000     90.0000     90.0000
outcell: Cell volume (Ang**3)        :    235.3780
<dSpData1D:S at geom step 18
  <sparsity:sparsity for geom step 18
    nrows_g=23 nrows=3 sparsity=.1304 nnzs=69, refcount: 7>
  <dData1D:(new from dSpData1D) n=69, refcount: 1>
refcount: 1>
new_DM -- step:    19
Re-using DM from previous geometries...
Number of DMs in history: 1
 DM extrapolation coefficients: 
1   1.00000
New DM after history re-use:
<dSpData2D:SpM extrapolated using coords
  <sparsity:sparsity for geom step 18
    nrows_g=23 nrows=3 sparsity=.1304 nnzs=69, refcount: 8>
  <dData2D:(temp array for extrapolation) n=69 m=1, refcount: 1>
refcount: 1>
No. of atoms with KB's overlaping orbs in proc 0. Max # of overlaps:       3      23
New grid distribution:   1
           1       1:   24    1:    9    1:    5
           2       1:   24    1:    9    6:   10
           3       1:   24    1:    9   11:   14
           4       1:   24    1:    9   15:   18
           5       1:   24   10:   18    1:    5
           6       1:   24   10:   18    6:   10
           7       1:   24   10:   18   11:   14
           8       1:   24   10:   18   15:   18

InitMesh: MESH =    48 x    36 x    36 =       62208
InitMesh: (bp) =    24 x    18 x    18 =        7776
InitMesh: Mesh cutoff (required, used) =   100.000   108.450 Ry
ExtMesh (bp) on 0 =    60 x    45 x    41 =      110700
New grid distribution:   2
           1       8:   24    6:   18    1:    6
           2       8:   24    1:    5    7:   18
           3       8:   24    1:    5    1:    6
           4       1:    7    1:    5    7:   18
           5       1:    7    6:   18    1:    6
           6       8:   24    6:   18    7:   18
           7       1:    7    6:   18    7:   18
           8       1:    7    1:    5    1:    6
New grid distribution:   3
           1      11:   24    7:   18    1:    8
           2       1:   10    7:   18    1:    8
           3      11:   24    1:    6    9:   18
           4       1:   10    1:    6    9:   18
           5      11:   24    1:    6    1:    8
           6       1:   10    1:    6    1:    8
           7      11:   24    7:   18    9:   18
           8       1:   10    7:   18    9:   18
Setting up quadratic distribution...
ExtMesh (bp) on 0 =    53 x    49 x    42 =      109074
PhiOnMesh: Number of (b)points on node 0 =                 1326
PhiOnMesh: nlist on node 0 =                 5418

        iscf     Eharris(eV)        E_KS(eV)     FreeEng(eV)     dDmax    Ef(eV) dHmax(eV)
   scf:    1     -465.838041     -465.838838     -465.838838  0.000777 -2.066545  0.009032
   scf:    2     -465.838827     -465.838835     -465.838835  0.000357 -2.060983  0.013827
   scf:    3     -465.838841     -465.838839     -465.838839  0.000221 -2.064421  0.000477
   scf:    4     -465.838839     -465.838839     -465.838839  0.000007 -2.064371  0.000339

SCF Convergence by DM+H criterion
max |DM_out - DM_in|         :     0.0000070027
max |H_out - H_in|      (eV) :     0.0003388352
SCF cycle converged after 4 iterations

Using DM_out to compute the final energy and forces
No. of atoms with KB's overlaping orbs in proc 0. Max # of overlaps:       3      23

siesta: E_KS(eV) =             -465.8388

siesta: Atomic forces (eV/Ang):
----------------------------------------
   Tot    0.000899   -0.033055    0.000000
----------------------------------------
   Max    0.069468
   Res    0.032592    sqrt( Sum f_i^2 / 3N )
----------------------------------------
   Max    0.069468    constrained

Stress-tensor-Voigt (kbar):       -0.68       -0.32       -1.01        0.08        0.00        0.00
(Free)E + p*V (eV/cell)     -465.7404
Target enthalpy (eV/cell)     -465.8388

                     ====================================
                        LUA coord. step =     19
                     ====================================

outcell: Unit cell vectors (Ang):
        7.286412    0.000000    0.000000
        0.000000    5.746952    0.000000
        0.000000    0.000000    5.621012

outcell: Cell vector modules (Ang)   :    7.286412    5.746952    5.621012
outcell: Cell angles (23,13,12) (deg):     90.0000     90.0000     90.0000
outcell: Cell volume (Ang**3)        :    235.3780
<dSpData1D:S at geom step 19
  <sparsity:sparsity for geom step 19
    nrows_g=23 nrows=3 sparsity=.1304 nnzs=69, refcount: 7>
  <dData1D:(new from dSpData1D) n=69, refcount: 1>
refcount: 1>
new_DM -- step:    20
Re-using DM from previous geometries...
Number of DMs in history: 1
 DM extrapolation coefficients: 
1   1.00000
New DM after history re-use:
<dSpData2D:SpM extrapolated using coords
  <sparsity:sparsity for geom step 19
    nrows_g=23 nrows=3 sparsity=.1304 nnzs=69, refcount: 8>
  <dData2D:(temp array for extrapolation) n=69 m=1, refcount: 1>
refcount: 1>
No. of atoms with KB's overlaping orbs in proc 0. Max # of overlaps:       3      23
New grid distribution:   1
           1       1:   24    1:    9    1:    5
           2       1:   24    1:    9    6:   10
           3       1:   24    1:    9   11:   14
           4       1:   24    1:    9   15:   18
           5       1:   24   10:   18    1:    5
           6       1:   24   10:   18    6:   10
           7       1:   24   10:   18   11:   14
           8       1:   24   10:   18   15:   18

InitMesh: MESH =    48 x    36 x    36 =       62208
InitMesh: (bp) =    24 x    18 x    18 =        7776
InitMesh: Mesh cutoff (required, used) =   100.000   108.450 Ry
ExtMesh (bp) on 0 =    60 x    45 x    41 =      110700
New grid distribution:   2
           1       8:   24    6:   18    1:    6
           2       8:   24    1:    5    7:   18
           3       8:   24    1:    5    1:    6
           4       1:    7    1:    5    7:   18
           5       1:    7    6:   18    1:    6
           6       8:   24    6:   18    7:   18
           7       1:    7    6:   18    7:   18
           8       1:    7    1:    5    1:    6
New grid distribution:   3
           1      11:   24    7:   18    1:    8
           2       1:   10    7:   18    1:    8
           3      11:   24    1:    6    9:   18
           4       1:   10    1:    6    9:   18
           5      11:   24    1:    6    1:    8
           6       1:   10    1:    6    1:    8
           7      11:   24    7:   18    9:   18
           8       1:   10    7:   18    9:   18
Setting up quadratic distribution...
ExtMesh (bp) on 0 =    53 x    49 x    42 =      109074
PhiOnMesh: Number of (b)points on node 0 =                 1326
PhiOnMesh: nlist on node 0 =                 5414

        iscf     Eharris(eV)        E_KS(eV)     FreeEng(eV)     dDmax    Ef(eV) dHmax(eV)
   scf:    1     -465.840470     -465.838895     -465.838895  0.000784 -2.059746  0.006621
   scf:    2     -465.838890     -465.838894     -465.838894  0.000243 -2.055694  0.009403
   scf:    3     -465.838896     -465.838895     -465.838895  0.000149 -2.058146  0.000565
   scf:    4     -465.838895     -465.838895     -465.838895  0.000008 -2.058111  0.000399

SCF Convergence by DM+H criterion
max |DM_out - DM_in|         :     0.0000076567
max |H_out - H_in|      (eV) :     0.0003989365
SCF cycle converged after 4 iterations

Using DM_out to compute the final energy and forces
No. of atoms with KB's overlaping orbs in proc 0. Max # of overlaps:       3      23

siesta: E_KS(eV) =             -465.8389

siesta: Atomic forces (eV/Ang):
----------------------------------------
   Tot    0.001235   -0.033185    0.000000
----------------------------------------
   Max    0.054924
   Res    0.028703    sqrt( Sum f_i^2 / 3N )
----------------------------------------
   Max    0.054924    constrained

Stress-tensor-Voigt (kbar):       -0.56       -0.34       -1.01        0.07        0.00        0.00
(Free)E + p*V (eV/cell)     -465.7454
Target enthalpy (eV/cell)     -465.8389

                     ====================================
                        LUA coord. step =     20
                     ====================================

outcell: Unit cell vectors (Ang):
        7.286412    0.000000    0.000000
        0.000000    5.746952    0.000000
        0.000000    0.000000    5.621012

outcell: Cell vector modules (Ang)   :    7.286412    5.746952    5.621012
outcell: Cell angles (23,13,12) (deg):     90.0000     90.0000     90.0000
outcell: Cell volume (Ang**3)        :    235.3780
<dSpData1D:S at geom step 20
  <sparsity:sparsity for geom step 20
    nrows_g=23 nrows=3 sparsity=.1304 nnzs=69, refcount: 7>
  <dData1D:(new from dSpData1D) n=69, refcount: 1>
refcount: 1>
new_DM -- step:    21
Re-using DM from previous geometries...
Number of DMs in history: 1
 DM extrapolation coefficients: 
1   1.00000
New DM after history re-use:
<dSpData2D:SpM extrapolated using coords
  <sparsity:sparsity for geom step 20
    nrows_g=23 nrows=3 sparsity=.1304 nnzs=69, refcount: 8>
  <dData2D:(temp array for extrapolation) n=69 m=1, refcount: 1>
refcount: 1>
No. of atoms with KB's overlaping orbs in proc 0. Max # of overlaps:       3      23
New grid distribution:   1
           1       1:   24    1:    9    1:    5
           2       1:   24    1:    9    6:   10
           3       1:   24    1:    9   11:   14
           4       1:   24    1:    9   15:   18
           5       1:   24   10:   18    1:    5
           6       1:   24   10:   18    6:   10
           7       1:   24   10:   18   11:   14
           8       1:   24   10:   18   15:   18

InitMesh: MESH =    48 x    36 x    36 =       62208
InitMesh: (bp) =    24 x    18 x    18 =        7776
InitMesh: Mesh cutoff (required, used) =   100.000   108.450 Ry
ExtMesh (bp) on 0 =    60 x    45 x    41 =      110700
New grid distribution:   2
           1       8:   24    6:   18    1:    6
           2       8:   24    1:    5    7:   18
           3       8:   24    1:    5    1:    6
           4       1:    7    1:    5    7:   18
           5       1:    7    6:   18    1:    6
           6       8:   24    6:   18    7:   18
           7       1:    7    6:   18    7:   18
           8       1:    7    1:    5    1:    6
New grid distribution:   3
           1      11:   24    7:   18    1:    8
           2       1:   10    7:   18    1:    8
           3      11:   24    1:    6    9:   18
           4       1:   10    1:    6    9:   18
           5      11:   24    1:    6    1:    8
           6       1:   10    1:    6    1:    8
           7      11:   24    7:   18    9:   18
           8       1:   10    7:   18    9:   18
Setting up quadratic distribution...
ExtMesh (bp) on 0 =    53 x    49 x    42 =      109074
PhiOnMesh: Number of (b)points on node 0 =                 1326
PhiOnMesh: nlist on node 0 =                 5418

        iscf     Eharris(eV)        E_KS(eV)     FreeEng(eV)     dDmax    Ef(eV) dHmax(eV)
   scf:    1     -465.843221     -465.838946     -465.838946  0.001172 -2.052174  0.003624
   scf:    2     -465.838945     -465.838946     -465.838946  0.000133 -2.049992  0.003992
   scf:    3     -465.838946     -465.838946     -465.838946  0.000063 -2.051174  0.000690

SCF Convergence by DM+H criterion
max |DM_out - DM_in|         :     0.0000625011
max |H_out - H_in|      (eV) :     0.0006901599
SCF cycle converged after 3 iterations

Using DM_out to compute the final energy and forces
No. of atoms with KB's overlaping orbs in proc 0. Max # of overlaps:       3      23

siesta: E_KS(eV) =             -465.8389

siesta: Atomic forces (eV/Ang):
----------------------------------------
   Tot    0.002040   -0.033253    0.000000
----------------------------------------
   Max    0.044539
   Res    0.018617    sqrt( Sum f_i^2 / 3N )
----------------------------------------
   Max    0.025622    constrained

Stress-tensor-Voigt (kbar):       -0.31       -0.32       -1.01        0.04        0.00        0.00
(Free)E + p*V (eV/cell)     -465.7588
Target enthalpy (eV/cell)     -465.8389

siesta: Program's energy decomposition (eV):
siesta: Ebs     =      -103.472663
siesta: Eions   =       815.854478
siesta: Ena     =       175.051077
siesta: Ekin    =       352.424870
siesta: Enl     =       -62.496453
siesta: Eso     =         0.000000
siesta: Eldau   =         0.000000
siesta: DEna    =        -2.833247
siesta: DUscf   =         0.752927
siesta: DUext   =         0.000000
siesta: Exc     =      -112.883643
siesta: eta*DQ  =         0.000000
siesta: Emadel  =         0.000000
siesta: Emeta   =         0.000000
siesta: Emolmec =         0.000000
siesta: Ekinion =         0.000000
siesta: Eharris =      -465.838946
siesta: Etot    =      -465.838946
siesta: FreeEng =      -465.838946

siesta: Final energy (eV):
siesta:  Band Struct. =    -103.472663
siesta:       Kinetic =     352.424870
siesta:       Hartree =     383.154756
siesta:       Eldau   =       0.000000
siesta:       Eso     =       0.000000
siesta:    Ext. field =       0.000000
siesta:   Exch.-corr. =    -112.883643
siesta:  Ion-electron =   -1074.304104
siesta:       Ion-ion =     -14.230826
siesta:       Ekinion =       0.000000
siesta:         Total =    -465.838946
siesta:         Fermi =      -2.051174

siesta: Atomic forces (eV/Ang):
siesta:      1    0.014873   -0.044539    0.000000
siesta:      2    0.012789    0.009565    0.000000
siesta:      3   -0.025622    0.001722    0.000000
siesta: ----------------------------------------
siesta:    Tot    0.002040   -0.033253    0.000000

siesta: Stress tensor (static) (eV/Ang**3):
siesta:    -0.000194    0.000025   -0.000000
siesta:     0.000025   -0.000199    0.000000
siesta:     0.000000    0.000000   -0.000628

siesta: Cell volume =        235.378012 Ang**3

siesta: Pressure (static):
siesta:                Solid            Molecule  Units
siesta:           0.00000371          0.00000294  Ry/Bohr**3
siesta:           0.00034062          0.00026954  eV/Ang**3
siesta:           0.54574068          0.43184885  kBar
(Free)E+ p_basis*V_orbitals  =        -465.253779
(Free)Eharris+ p_basis*V_orbitals  =        -465.253779

siesta: Electric dipole (a.u.)  =   -0.035578    0.554994    0.000000
siesta: Electric dipole (Debye) =   -0.090429    1.410656    0.000000
>> End of run:   4-JUL-2017   8:28:46
Job completed
