
                           ***********************       
                           *  WELCOME TO SIESTA  *       
                           ***********************       

reinit: Reading from ../h2o_neb.fdf

reinit: -----------------------------------------------------------------------
reinit: System Name: Water molecule
reinit: -----------------------------------------------------------------------
reinit: System Label: h2o_neb
reinit: -----------------------------------------------------------------------
Siesta Version: siesta-4.1--731
Architecture  : x86_64-linux-n-62-18-14
Compiler flags: mpifort -m64 -fPIC -O3 -march=native -ftree-vectorize -fexpensive-optimizatioons -funroll-loops -fprefetch-loop-arrays -fno-second-underscore  -flto -fuse-linker-plugin
PP flags      : -I/zdata/groups/common/nicpa/2016-oct/generic/build-tools/1.0/include -I/zdatta/groups/common/nicpa/2016-oct/generic/gmp/6.1.0/include -I/zdata/groups/common/nicpa/2016-oct/generic/mpfr/3.1.4/include -I/zdata/groups/common/nicpa/2016-oct/generic/mpc/1.0.3/include -I/zdata/groups/common/nicpa/2016-oct/generic/isl/0.16.1/include -I/zdata/groups/common/nicpa/2016-oct/generic/gcc/6.2.0/include -I/zdata/groups/common/nicpa/2016-oct/generic/numactl/2.0.11/include -I/zdata/groups/common/nicpa/2016-oct/XeonE5-2665/zlib/1.2.8/gnu-6.2.0/include -I/zdata/groups/common/nicpa/2016-oct/XeonE5-2665/libxml2/2.9.4/gnu-6.2.0/include -I/zdata/groups/common/nicpa/2016-oct/XeonE5-2665/hwloc/1.11.4/gnu-6.2.0/include -I/zdata/groups/common/nicpa/2016-oct/XeonE5-2665/openmpi/2.0.1/gnu-6.2.0/include -I/zdata/groups/common/nicpa/2016-oct/XeonE5-2665/hdf5/1.8.17/gnu-6.2.0/include -I/zdata/groups/common/nicpa/2016-oct/XeonE5-2665/pnetcdf/1.7.0/gnu-6.2.0/include -I/zdata/groups/common/nicpa/2016-oct/XeonE5-2665/netcdf/4.4.1/gnu-6.2.0/include -I/zdata/groups/common/nicpa/2016-oct/XeonE5-2665/flook/0.7.0/gnu-6.2.0/include -I/zdata/groups/common/nicpa/2016-oct/XeonE5-2665/parmetis/4.0.3/gnu-6.2.0/include -I/zdata/groups/common/nicpa/2016-oct/XeonE5-2665/scalapack/204/gnu-6.2.0/include -I/zdata/groups/common/nicpa/2016-oct/XeonE5-2665/openblas/0.2.19/gnu-6.2.0/include -I/zdata/groups/common/nicpa/2016-oct/XeonE5-2665/mumps/5.0.2/gnu-6.2.0/include -I/zdata/groups/common/nicpa/2016-oct/XeonE5-2665/fftw/3.3.5/gnu-6.2.0/include -DMPI -DFC_HAVE_FLUSH -DFC_HAVE_ABORT -DCDF -DCDF4 -DSIESTA__METIS -DSIESTA__MUMPS -DTS_NOCHECKS -DNCDF -DNCDF_4 -DNCDF_PARALLEL -DSIESTA__FLOOK
Libraries     : -lnetcdff -lnetcdf -lpnetcdf -lhdf5_hl -lhdf5 -lz  -lzmumps -lmumps_common -llpord -lparmetis -lmetis -lscalapack -lopenblas  -lmetis -flto -fuse-linker-plugin  -L/zdata/groups/common/nicpa/2016-oct/XeonE5-2665/flook/0.7.0/gnu-6.2.0/lib -Wl,-rpath=/zdata/groups/common/nicpa/2016-oct/XeonE5-2665/flook/0.7.0/gnu-6.2.0/lib -lflookall -ldl
PARALLEL version
NetCDF support
NetCDF-4 support
NetCDF-4 MPI-IO support
METIS ordering support

* Running on 8 nodes in parallel
>> Start of run:   4-JUL-2017   8:28:53

initatom: Reading input for the pseudopotentials and atomic orbitals ----------
Species number:   1 Atomic number:    8 Label: O
Species number:   2 Atomic number:    1 Label: H

Ground state valence configuration:   2s02  2p04
Reading pseudopotential information in formatted form from O.psf

Valence configuration for pseudopotential generation:
2s( 2.00) rc: 1.14
2p( 4.00) rc: 1.14
3d( 0.00) rc: 1.14
4f( 0.00) rc: 1.14
Ground state valence configuration:   1s01
Reading pseudopotential information in formatted form from H.psf

Valence configuration for pseudopotential generation:
1s( 1.00) rc: 1.25
2p( 0.00) rc: 1.25
3d( 0.00) rc: 1.25
4f( 0.00) rc: 1.25
For O, standard SIESTA heuristics set lmxkb to 3
 (one more than the basis l, including polarization orbitals).
Use PS.lmax or PS.KBprojectors blocks to override.
For H, standard SIESTA heuristics set lmxkb to 2
 (one more than the basis l, including polarization orbitals).
Use PS.lmax or PS.KBprojectors blocks to override.

<basis_specs>
===============================================================================
O                    Z=   8    Mass=  16.000        Charge= 0.17977+309
Lmxo=1 Lmxkb= 3    BasisType=split      Semic=F
L=0  Nsemic=0  Cnfigmx=2
          n=1  nzeta=2  polorb=0
            splnorm:   0.15000    
               vcte:    0.0000    
               rinn:    0.0000    
               qcoe:    0.0000    
               qyuk:    0.0000    
               qwid:   0.10000E-01
                rcs:    0.0000      0.0000    
            lambdas:    1.0000      1.0000    
L=1  Nsemic=0  Cnfigmx=2
          n=1  nzeta=2  polorb=1
            splnorm:   0.15000    
               vcte:    0.0000    
               rinn:    0.0000    
               qcoe:    0.0000    
               qyuk:    0.0000    
               qwid:   0.10000E-01
                rcs:    0.0000      0.0000    
            lambdas:    1.0000      1.0000    
-------------------------------------------------------------------------------
L=0  Nkbl=1  erefs: 0.17977+309
L=1  Nkbl=1  erefs: 0.17977+309
L=2  Nkbl=1  erefs: 0.17977+309
L=3  Nkbl=1  erefs: 0.17977+309
===============================================================================
</basis_specs>

atom: Called for O                     (Z =   8)

read_vps: Pseudopotential generation method:
read_vps: ATM3      Troullier-Martins                       
Total valence charge:    6.00000

xc_check: Exchange-correlation functional:
xc_check: Ceperley-Alder
V l=0 = -2*Zval/r beyond r=  1.1278
V l=1 = -2*Zval/r beyond r=  1.1278
V l=2 = -2*Zval/r beyond r=  1.1278
V l=3 = -2*Zval/r beyond r=  1.1138
All V_l potentials equal beyond r=  1.1278
This should be close to max(r_c) in ps generation
All pots = -2*Zval/r beyond r=  1.1278

VLOCAL1: 99.0% of the norm of Vloc inside     34.126 Ry
VLOCAL1: 99.9% of the norm of Vloc inside     77.774 Ry
atom: Maximum radius for 4*pi*r*r*local-pseudopot. charge    1.37759
atom: Maximum radius for r*vlocal+2*Zval:    1.18566
GHOST: No ghost state for L =  0
GHOST: No ghost state for L =  1
GHOST: No ghost state for L =  2
GHOST: No ghost state for L =  3

KBgen: Kleinman-Bylander projectors: 
   l= 0   rc=  1.294105   el= -1.742414   Ekb=  9.135903   kbcos=  0.326910
   l= 1   rc=  1.294105   el= -0.676589   Ekb= -8.124878   kbcos= -0.395047
   l= 2   rc=  1.448233   el=  0.002386   Ekb= -2.039267   kbcos= -0.003484
   l= 3   rc=  1.561052   el=  0.003508   Ekb= -0.799141   kbcos= -0.000344

KBgen: Total number of  Kleinman-Bylander projectors:   16
atom: -------------------------------------------------------------------------

atom: SANKEY-TYPE ORBITALS:
atom: Selected multiple-zeta basis: split     

SPLIT: Orbitals with angular momentum L= 0

SPLIT: Basis orbitals for state 2s

SPLIT: PAO cut-off radius determined from an
SPLIT: energy shift=  0.020000 Ry

   izeta = 1
                 lambda =    1.000000
                     rc =    3.305093
                 energy =   -1.723766
                kinetic =    1.614911
    potential(screened) =   -3.338677
       potential(ionic) =  -11.304675

   izeta = 2
                 rmatch =    2.510382
              splitnorm =    0.150000
                 energy =   -1.471299
                kinetic =    2.446434
    potential(screened) =   -3.917732
       potential(ionic) =  -12.476133

SPLIT: Orbitals with angular momentum L= 1

SPLIT: Basis orbitals for state 2p

SPLIT: PAO cut-off radius determined from an
SPLIT: energy shift=  0.020000 Ry

   izeta = 1
                 lambda =    1.000000
                     rc =    3.937239
                 energy =   -0.658841
                kinetic =    5.005986
    potential(screened) =   -5.664827
       potential(ionic) =  -13.452360

   izeta = 2
                 rmatch =    2.541963
              splitnorm =    0.150000
                 energy =   -0.367441
                kinetic =    7.530509
    potential(screened) =   -7.897949
       potential(ionic) =  -16.611953

POLgen: Perturbative polarization orbital with L=  2

POLgen: Polarization orbital for state 2p

   izeta = 1
                     rc =    3.937239
                 energy =    2.398520
                kinetic =    4.716729
    potential(screened) =   -2.318209
       potential(ionic) =   -8.603170
atom: Total number of Sankey-type orbitals: 13

atm_pop: Valence configuration (for local Pseudopot. screening):
 2s( 2.00)                                                            
 2p( 4.00)                                                            
Vna: chval, zval:    6.00000   6.00000

Vna:  Cut-off radius for the neutral-atom potential:   3.937239

atom: _________________________________________________________________________

<basis_specs>
===============================================================================
H                    Z=   1    Mass=  1.0100        Charge= 0.17977+309
Lmxo=0 Lmxkb= 2    BasisType=split      Semic=F
L=0  Nsemic=0  Cnfigmx=1
          n=1  nzeta=2  polorb=1
            splnorm:   0.15000    
               vcte:    0.0000    
               rinn:    0.0000    
               qcoe:    0.0000    
               qyuk:    0.0000    
               qwid:   0.10000E-01
                rcs:    0.0000      0.0000    
            lambdas:    1.0000      1.0000    
-------------------------------------------------------------------------------
L=0  Nkbl=1  erefs: 0.17977+309
L=1  Nkbl=1  erefs: 0.17977+309
L=2  Nkbl=1  erefs: 0.17977+309
===============================================================================
</basis_specs>

atom: Called for H                     (Z =   1)

read_vps: Pseudopotential generation method:
read_vps: ATM3      Troullier-Martins                       
Total valence charge:    1.00000

xc_check: Exchange-correlation functional:
xc_check: Ceperley-Alder
V l=0 = -2*Zval/r beyond r=  1.2343
V l=1 = -2*Zval/r beyond r=  1.2189
V l=2 = -2*Zval/r beyond r=  1.2189
All V_l potentials equal beyond r=  1.2343
This should be close to max(r_c) in ps generation
All pots = -2*Zval/r beyond r=  1.2343

VLOCAL1: 99.0% of the norm of Vloc inside     28.493 Ry
VLOCAL1: 99.9% of the norm of Vloc inside     64.935 Ry
atom: Maximum radius for 4*pi*r*r*local-pseudopot. charge    1.45251
atom: Maximum radius for r*vlocal+2*Zval:    1.21892
GHOST: No ghost state for L =  0
GHOST: No ghost state for L =  1
GHOST: No ghost state for L =  2

KBgen: Kleinman-Bylander projectors: 
   l= 0   rc=  1.364359   el= -0.467325   Ekb= -2.005361   kbcos= -0.336422
   l= 1   rc=  1.434438   el=  0.001430   Ekb= -0.501708   kbcos= -0.021697
   l= 2   rc=  1.470814   el=  0.002365   Ekb= -0.190555   kbcos= -0.002281

KBgen: Total number of  Kleinman-Bylander projectors:    9
atom: -------------------------------------------------------------------------

atom: SANKEY-TYPE ORBITALS:
atom: Selected multiple-zeta basis: split     

SPLIT: Orbitals with angular momentum L= 0

SPLIT: Basis orbitals for state 1s

SPLIT: PAO cut-off radius determined from an
SPLIT: energy shift=  0.020000 Ry

   izeta = 1
                 lambda =    1.000000
                     rc =    4.828263
                 energy =   -0.449375
                kinetic =    0.929372
    potential(screened) =   -1.378747
       potential(ionic) =   -1.915047

   izeta = 2
                 rmatch =    3.854947
              splitnorm =    0.150000
                 energy =   -0.336153
                kinetic =    1.505294
    potential(screened) =   -1.841447
       potential(ionic) =   -2.413582

POLgen: Perturbative polarization orbital with L=  1

POLgen: Polarization orbital for state 1s

   izeta = 1
                     rc =    4.828263
                 energy =    0.706972
                kinetic =    1.396397
    potential(screened) =   -0.689424
       potential(ionic) =   -1.169792
atom: Total number of Sankey-type orbitals:  5

atm_pop: Valence configuration (for local Pseudopot. screening):
 1s( 1.00)                                                            
Vna: chval, zval:    1.00000   1.00000

Vna:  Cut-off radius for the neutral-atom potential:   4.828263

atom: _________________________________________________________________________

prinput: Basis input ----------------------------------------------------------

PAO.BasisType split     

%block ChemicalSpeciesLabel
    1    8 O                       # Species index, atomic number, species label
    2    1 H                       # Species index, atomic number, species label
%endblock ChemicalSpeciesLabel

%block PAO.Basis                 # Define Basis set
O                     2                    # Species label, number of l-shells
 n=2   0   2                         # n, l, Nzeta 
   3.305      2.510   
   1.000      1.000   
 n=2   1   2 P   1                   # n, l, Nzeta, Polarization, NzetaPol
   3.937      2.542   
   1.000      1.000   
H                     1                    # Species label, number of l-shells
 n=1   0   2 P   1                   # n, l, Nzeta, Polarization, NzetaPol
   4.828      3.855   
   1.000      1.000   
%endblock PAO.Basis

prinput: ----------------------------------------------------------------------

Dumping basis to NetCDF file O.ion.nc
Dumping basis to NetCDF file H.ion.nc
coor:   Atomic-coordinates input format  =     Cartesian coordinates
coor:                                          (in Angstroms)

siesta: Atomic coordinates (Bohr) and species
siesta:      0.00000   0.00000   0.00000  1        1
siesta:      1.43052   1.10738   0.00000  2        2
siesta:     -1.43052   1.10738   0.00000  2        3
siesta:      0.00000   6.61404   0.00000  1        4
siesta:      1.43052   5.50666   0.00000  2        5
siesta:     -1.43052   5.50666   0.00000  2        6

siesta: System type = molecule  

initatomlists: Number of atoms, orbitals, and projectors:      6    46    68

siesta: ******************** Simulation parameters ****************************
siesta:
siesta: The following are some of the parameters of the simulation.
siesta: A complete list of the parameters used, including default values,
siesta: can be found in file out.fdf
siesta:
redata: Spin configuration                          = none
redata: Number of spin components                   = 1
redata: Time-Reversal Symmetry                      = T
redata: Spin-spiral                                 = F
redata: Long output                                 =   F
redata: Number of Atomic Species                    =        2
redata: Charge density info will appear in .RHO file
redata: Write Mulliken Pop.                         = NO
redata: Mesh Cutoff                                 =   250.0000 Ry
redata: Net charge of the system                    =     0.0000 |e|
redata: Min. number of SCF Iter                     =        3
redata: Max. number of SCF Iter                     =    10000
redata: SCF mix quantity                            = Hamiltonian
redata: Mix DM or H after convergence               =   F
redata: Recompute H after scf cycle                 =   F
redata: Mix DM in first SCF step                    =   T
redata: Write Pulay info on disk                    =   F
redata: New DM Mixing Weight                        =     0.0200
redata: New DM Occupancy tolerance                  = 0.000000000001
redata: No kicks to SCF
redata: DM Mixing Weight for Kicks                  =     0.5000
redata: Require Harris convergence for SCF          =   F
redata: Harris energy tolerance for SCF             =     0.000100 eV
redata: Require DM convergence for SCF              =   T
redata: DM tolerance for SCF                        =     0.0001
redata: Require EDM convergence for SCF             =   F
redata: EDM tolerance for SCF                       =     0.001000 eV
redata: Require H convergence for SCF               =   T
redata: Hamiltonian tolerance for SCF               =     0.001000 eV
redata: Require (free) Energy convergence for SCF   =   F
redata: (free) Energy tolerance for SCF             =     0.000100 eV
redata: Using Saved Data (generic)                  =   F
redata: Use continuation files for DM               =   T
redata: Neglect nonoverlap interactions             =   F
redata: Method of Calculation                       = Diagonalization
redata: Divide and Conquer                          =   T
redata: Electronic Temperature                      =   299.9869 K
redata: Fix the spin of the system                  =   F
redata: Dynamics option                             = LUA
mix.SCF: Pulay mixing                            = Pulay
mix.SCF:    Variant                              = stable
mix.SCF:    History steps                        = 2
mix.SCF:    Linear mixing weight                 =     0.020000
mix.SCF:    Mixing weight                        =     0.020000
mix.SCF:    SVD condition                        = 0.1000E-07
redata: Save all siesta data in one NC              =   F
redata: ***********************************************************************

%block SCF.Mixers
  Pulay
%endblock SCF.Mixers

%block SCF.Mixer.Pulay
  # Mixing method
  method pulay
  variant stable

  # Mixing options
  weight 0.0200
  weight.linear 0.0200
  history 2
%endblock SCF.Mixer.Pulay

Size of DM history Fstack: 0
Total number of electrons:    16.000000
Total ionic charge:    16.000000

* ProcessorY, Blocksize:    2   6


* Orbital distribution balance (max,min):     6     4

 Kpoints in:            1 . Kpoints trimmed:            1

siesta: k-grid: Number of k-points =     1
siesta: k-grid: Cutoff (effective) =     7.500 Ang
siesta: k-grid: Supercell and displacements
siesta: k-grid:    1   0   0      0.000
siesta: k-grid:    0   1   0      0.000
siesta: k-grid:    0   0   1      0.000

siesta: Constraint (4): pos
  [ 1 -- 4 ]


LUA NEB calculator
NEB having 5 images

LUA/NEB initial state


                     ====================================
                        LUA coord. step =      0
                     ====================================

outcell: Unit cell vectors (Ang):
       15.000000    0.000000    0.000000
        0.000000   15.000000    0.000000
        0.000000    0.000000   15.000000

outcell: Cell vector modules (Ang)   :   15.000000   15.000000   15.000000
outcell: Cell angles (23,13,12) (deg):     90.0000     90.0000     90.0000
outcell: Cell volume (Ang**3)        :   3375.0000
<dSpData1D:S at geom step 0
  <sparsity:sparsity for geom step 0
    nrows_g=46 nrows=6 sparsity=.1101 nnzs=233, refcount: 7>
  <dData1D:(new from dSpData1D) n=233, refcount: 1>
refcount: 1>
new_DM -- step:     1
Initializing Density Matrix...

Attempting to read DM from file... Failed...
DM filled with atomic data:
<dSpData2D:DM initialized from atoms
  <sparsity:sparsity for geom step 0
    nrows_g=46 nrows=6 sparsity=.1101 nnzs=233, refcount: 8>
  <dData2D:DM n=233 m=1, refcount: 1>
refcount: 1>

No. of atoms with KB's overlaping orbs in proc 0. Max # of overlaps:       3      33
New grid distribution:   1
           1       1:   72    1:   36    1:   18
           2       1:   72    1:   36   19:   36
           3       1:   72    1:   36   37:   54
           4       1:   72    1:   36   55:   72
           5       1:   72   37:   72    1:   18
           6       1:   72   37:   72   19:   36
           7       1:   72   37:   72   37:   54
           8       1:   72   37:   72   55:   72

InitMesh: MESH =   144 x   144 x   144 =     2985984
InitMesh: (bp) =    72 x    72 x    72 =      373248
InitMesh: Mesh cutoff (required, used) =   250.000   254.709 Ry
ExtMesh (bp) on 0 =   124 x    88 x    70 =      763840
New grid distribution:   2
           1       1:   15   14:   72    1:   18
           2       1:   29   14:   72   19:   72
           3      14:   72    1:   13   19:   72
           4       1:   13    1:   13   19:   72
           5      16:   72   14:   72    1:   18
           6      30:   72   14:   72   19:   72
           7      12:   72    1:   13    1:   18
           8       1:   11    1:   13    1:   18
New grid distribution:   3
           1       1:   16   16:   72    1:   16
           2       1:   30   16:   72   17:   72
           3      17:   72    1:   15   17:   72
           4       1:   16    1:   15   17:   72
           5      17:   72   16:   72    1:   16
           6      31:   72   16:   72   17:   72
           7      17:   72    1:   15    1:   16
           8       1:   16    1:   15    1:   16
Setting up quadratic distribution...
ExtMesh (bp) on 0 =    67 x   111 x    70 =      520590
PhiOnMesh: Number of (b)points on node 0 =                15930
PhiOnMesh: nlist on node 0 =                33983

stepf: Fermi-Dirac step function

siesta: Program's energy decomposition (eV):
siesta: Ebs     =      -173.428455
siesta: Eions   =      1631.708957
siesta: Ena     =       350.261039
siesta: Ekin    =       752.727251
siesta: Enl     =      -137.859783
siesta: Eso     =         0.000000
siesta: Eldau   =         0.000000
siesta: DEna    =       -33.782879
siesta: DUscf   =         4.155896
siesta: DUext   =         0.000000
siesta: Exc     =      -233.818519
siesta: eta*DQ  =         0.000000
siesta: Emadel  =         0.000000
siesta: Emeta   =         0.000000
siesta: Emolmec =         0.000000
siesta: Ekinion =         0.000000
siesta: Eharris =      -933.511143
siesta: Etot    =      -930.025951
siesta: FreeEng =      -930.025951

        iscf     Eharris(eV)        E_KS(eV)     FreeEng(eV)     dDmax    Ef(eV) dHmax(eV)
   scf:    1     -933.511143     -930.025951     -930.025951  1.439239 -4.246063  6.784433
timer: Routine,Calls,Time,% = IterSCF        1       0.670  31.87
   scf:    2     -930.356152     -930.192472     -930.192472  0.004636 -4.160634  6.449929
   scf:    3     -931.874378     -931.641809     -931.641809  0.080979 -2.510796  0.533979
   scf:    4     -931.668223     -931.655814     -931.655814  0.003119 -2.558052  0.310250
   scf:    5     -931.658474     -931.657149     -931.657149  0.001016 -2.554452  0.307214
   scf:    6     -931.690538     -931.676655     -931.676655  0.023349 -2.470326  0.235840
   scf:    7     -931.676869     -931.676762     -931.676762  0.000312 -2.467797  0.233148
   scf:    8     -931.676237     -931.677772     -931.677772  0.021158 -2.293255  0.158249
   scf:    9     -931.677905     -931.677839     -931.677839  0.000252 -2.288202  0.150984
   scf:   10     -931.678877     -931.678407     -931.678407  0.002302 -2.238107  0.072769
   scf:   11     -931.678553     -931.678480     -931.678480  0.000238 -2.239142  0.068577
   scf:   12     -931.679648     -931.679209     -931.679209  0.004113 -2.257216  0.029874
   scf:   13     -931.679213     -931.679211     -931.679211  0.000041 -2.257579  0.029511
   scf:   14     -931.679193     -931.679224     -931.679224  0.002444 -2.279410  0.021758
   scf:   15     -931.679225     -931.679224     -931.679224  0.000046 -2.280242  0.020925
   scf:   16     -931.679234     -931.679230     -931.679230  0.000411 -2.288139  0.012064
   scf:   17     -931.679233     -931.679231     -931.679231  0.000033 -2.288038  0.011278
   scf:   18     -931.679257     -931.679247     -931.679247  0.000429 -2.286699  0.005230
   scf:   19     -931.679247     -931.679247     -931.679247  0.000005 -2.286659  0.005192
   scf:   20     -931.679248     -931.679248     -931.679248  0.000429 -2.283053  0.003491
   scf:   21     -931.679248     -931.679248     -931.679248  0.000010 -2.282905  0.003349
   scf:   22     -931.679248     -931.679248     -931.679248  0.000110 -2.281218  0.002421
   scf:   23     -931.679248     -931.679248     -931.679248  0.000005 -2.281221  0.002259
   scf:   24     -931.679249     -931.679249     -931.679249  0.000057 -2.281266  0.000927

SCF Convergence by DM+H criterion
max |DM_out - DM_in|         :     0.0000568556
max |H_out - H_in|      (eV) :     0.0009267750
SCF cycle converged after 24 iterations

Using DM_out to compute the final energy and forces
No. of atoms with KB's overlaping orbs in proc 0. Max # of overlaps:       3      33

siesta: E_KS(eV) =             -931.6792

siesta: E_KS - E_eggbox =      -931.6792

siesta: Atomic forces (eV/Ang):
----------------------------------------
   Tot   -0.000000   -0.015104   -0.000000
----------------------------------------
   Max    0.756967
   Res    0.461269    sqrt( Sum f_i^2 / 3N )
----------------------------------------
   Max    0.755220    constrained

Stress-tensor-Voigt (kbar):       -1.09       -0.29       -0.00        0.00       -0.00       -0.00
(Free)E + p*V (eV/cell)     -930.7108
Target enthalpy (eV/cell)     -931.6792

LUA/NEB final state

Deleting h2o_neb.DM for a clean restart...

                     ====================================
                        LUA coord. step =      1
                     ====================================

outcell: Unit cell vectors (Ang):
       15.000000    0.000000    0.000000
        0.000000   15.000000    0.000000
        0.000000    0.000000   15.000000

outcell: Cell vector modules (Ang)   :   15.000000   15.000000   15.000000
outcell: Cell angles (23,13,12) (deg):     90.0000     90.0000     90.0000
outcell: Cell volume (Ang**3)        :   3375.0000
<dSpData1D:S at geom step 1
  <sparsity:sparsity for geom step 1
    nrows_g=46 nrows=6 sparsity=.0969 nnzs=205, refcount: 7>
  <dData1D:(new from dSpData1D) n=205, refcount: 1>
refcount: 1>
new_DM -- step:     2
Initializing Density Matrix...

Attempting to read DM from file... Failed...
DM filled with atomic data:
<dSpData2D:DM initialized from atoms
  <sparsity:sparsity for geom step 1
    nrows_g=46 nrows=6 sparsity=.0969 nnzs=205, refcount: 8>
  <dData2D:DM n=205 m=1, refcount: 1>
refcount: 1>

No. of atoms with KB's overlaping orbs in proc 0. Max # of overlaps:       3      23
New grid distribution:   1
           1       1:   72    1:   36    1:   18
           2       1:   72    1:   36   19:   36
           3       1:   72    1:   36   37:   54
           4       1:   72    1:   36   55:   72
           5       1:   72   37:   72    1:   18
           6       1:   72   37:   72   19:   36
           7       1:   72   37:   72   37:   54
           8       1:   72   37:   72   55:   72

InitMesh: MESH =   144 x   144 x   144 =     2985984
InitMesh: (bp) =    72 x    72 x    72 =      373248
InitMesh: Mesh cutoff (required, used) =   250.000   254.709 Ry
ExtMesh (bp) on 0 =   124 x    88 x    70 =      763840
New grid distribution:   2
           1       1:   19   17:   72    1:   20
           2       1:   13    1:   16   21:   72
           3       1:   29   17:   72   21:   72
           4      14:   72    1:   16   21:   72
           5      20:   72   17:   72    1:   20
           6      11:   72    1:   16    1:   20
           7      30:   72   17:   72   21:   72
           8       1:   10    1:   16    1:   20
New grid distribution:   3
           1       1:   15   19:   72    1:   14
           2       1:   29   20:   72   15:   72
           3      18:   72    1:   19   15:   72
           4       1:   17    1:   19   15:   72
           5      16:   72   19:   72    1:   14
           6      30:   72   20:   72   15:   72
           7      16:   72    1:   18    1:   14
           8       1:   15    1:   18    1:   14
Setting up quadratic distribution...
ExtMesh (bp) on 0 =    71 x   108 x    72 =      552096
PhiOnMesh: Number of (b)points on node 0 =                21280
PhiOnMesh: nlist on node 0 =                33993

        iscf     Eharris(eV)        E_KS(eV)     FreeEng(eV)     dDmax    Ef(eV) dHmax(eV)
   scf:    1     -934.394674     -930.257889     -930.257889  1.429957 -4.243061  7.872357
   scf:    2     -930.561444     -930.410935     -930.410935  0.005360 -4.150451  7.506665
   scf:    3     -931.906860     -931.749186     -931.749186  0.094867 -2.377205  0.741921
   scf:    4     -931.779954     -931.765249     -931.765249  0.003376 -2.425790  0.525293
   scf:    5     -931.770138     -931.767710     -931.767710  0.001259 -2.426562  0.494826
   scf:    6     -931.801272     -931.786041     -931.786041  0.012358 -2.432658  0.453879
   scf:    7     -931.786859     -931.786451     -931.786451  0.000462 -2.431457  0.451027
   scf:    8     -931.800168     -931.795217     -931.795217  0.017944 -2.381860  0.334425
   scf:    9     -931.795484     -931.795358     -931.795358  0.001425 -2.375180  0.323340
   scf:   10     -931.787245     -931.792356     -931.792356  0.017588 -2.286634  0.297236
   scf:   11     -931.791554     -931.791958     -931.791958  0.001674 -2.272551  0.299415
   scf:   12     -931.788072     -931.790055     -931.790055  0.007656 -2.200665  0.295002
   scf:   13     -931.791062     -931.790563     -931.790563  0.000205 -2.194262  0.276178
   scf:   14     -931.794908     -931.792855     -931.792855  0.001142 -2.164682  0.179044
   scf:   15     -931.793401     -931.793128     -931.793128  0.000414 -2.164539  0.169092
   scf:   16     -931.797227     -931.795406     -931.795406  0.004693 -2.163290  0.141715
   scf:   17     -931.795480     -931.795443     -931.795443  0.000138 -2.163630  0.140750
   scf:   18     -931.796687     -931.796265     -931.796265  0.005929 -2.179052  0.099600
   scf:   19     -931.796274     -931.796269     -931.796269  0.000482 -2.181271  0.096899
   scf:   20     -931.795497     -931.795964     -931.795964  0.005060 -2.206224  0.092288
   scf:   21     -931.795894     -931.795929     -931.795929  0.000494 -2.210431  0.092668
   scf:   22     -931.795634     -931.795784     -931.795784  0.002055 -2.230229  0.088594
   scf:   23     -931.795874     -931.795829     -931.795829  0.000061 -2.232208  0.082890
   scf:   24     -931.796210     -931.796030     -931.796030  0.000355 -2.241245  0.054090
   scf:   25     -931.796081     -931.796056     -931.796056  0.000129 -2.241419  0.050960
   scf:   26     -931.796421     -931.796257     -931.796257  0.001350 -2.243097  0.045453
   scf:   27     -931.796260     -931.796255     -931.796255  0.000055 -2.243018  0.045076
   scf:   28     -931.796388     -931.796338     -931.796338  0.001749 -2.240220  0.032562
   scf:   29     -931.796341     -931.796340     -931.796340  0.000146 -2.239690  0.031680
   scf:   30     -931.796280     -931.796318     -931.796318  0.001540 -2.233574  0.027683
   scf:   31     -931.796310     -931.796314     -931.796314  0.000161 -2.232403  0.027981
   scf:   32     -931.796282     -931.796302     -931.796302  0.000715 -2.226511  0.027873
   scf:   33     -931.796308     -931.796305     -931.796305  0.000017 -2.225768  0.026209
   scf:   34     -931.796332     -931.796318     -931.796318  0.000087 -2.222397  0.017825
   scf:   35     -931.796323     -931.796321     -931.796321  0.000042 -2.222239  0.016668
   scf:   36     -931.796353     -931.796337     -931.796337  0.000371 -2.220939  0.014782
   scf:   37     -931.796338     -931.796338     -931.796338  0.000024 -2.220935  0.014642
   scf:   38     -931.796355     -931.796348     -931.796348  0.000502 -2.220950  0.011520
   scf:   39     -931.796348     -931.796348     -931.796348  0.000041 -2.221039  0.011072
   scf:   40     -931.796345     -931.796347     -931.796347  0.000478 -2.222223  0.009355
   scf:   41     -931.796347     -931.796347     -931.796347  0.000051 -2.222501  0.008756
   scf:   42     -931.796342     -931.796345     -931.796345  0.000264 -2.224128  0.008604
   scf:   43     -931.796345     -931.796345     -931.796345  0.000011 -2.224392  0.008168
   scf:   44     -931.796347     -931.796346     -931.796346  0.000035 -2.225646  0.005847
   scf:   45     -931.796346     -931.796346     -931.796346  0.000012 -2.225751  0.005429
   scf:   46     -931.796350     -931.796348     -931.796348  0.000089 -2.226484  0.004620
   scf:   47     -931.796348     -931.796348     -931.796348  0.000010 -2.226510  0.004583
   scf:   48     -931.796350     -931.796349     -931.796349  0.000138 -2.226843  0.003997
   scf:   49     -931.796349     -931.796349     -931.796349  0.000012 -2.226842  0.003879
   scf:   50     -931.796350     -931.796350     -931.796350  0.000138 -2.226791  0.003258
   scf:   51     -931.796350     -931.796350     -931.796350  0.000015 -2.226743  0.003097
   scf:   52     -931.796349     -931.796349     -931.796349  0.000090 -2.226398  0.002508
   scf:   53     -931.796349     -931.796349     -931.796349  0.000006 -2.226321  0.002410
   scf:   54     -931.796349     -931.796349     -931.796349  0.000027 -2.225907  0.001916
   scf:   55     -931.796349     -931.796349     -931.796349  0.000002 -2.225854  0.001885
   scf:   56     -931.796350     -931.796349     -931.796349  0.000014 -2.225513  0.001644
   scf:   57     -931.796349     -931.796349     -931.796349  0.000003 -2.225488  0.001586
   scf:   58     -931.796350     -931.796350     -931.796350  0.000033 -2.225253  0.001318
   scf:   59     -931.796350     -931.796350     -931.796350  0.000004 -2.225241  0.001291
   scf:   60     -931.796350     -931.796350     -931.796350  0.000036 -2.225130  0.001149
   scf:   61     -931.796350     -931.796350     -931.796350  0.000004 -2.225130  0.001107
   scf:   62     -931.796350     -931.796350     -931.796350  0.000027 -2.225149  0.000767

SCF Convergence by DM+H criterion
max |DM_out - DM_in|         :     0.0000270150
max |H_out - H_in|      (eV) :     0.0007666024
SCF cycle converged after 62 iterations

Using DM_out to compute the final energy and forces
No. of atoms with KB's overlaping orbs in proc 0. Max # of overlaps:       3      23

siesta: E_KS(eV) =             -931.7963

siesta: Atomic forces (eV/Ang):
----------------------------------------
   Tot    0.000000   -0.003703    0.000000
----------------------------------------
   Max    0.976531
   Res    0.482652    sqrt( Sum f_i^2 / 3N )
----------------------------------------
   Max    0.727569    constrained

Stress-tensor-Voigt (kbar):       -0.96        0.07       -0.00        0.00        0.00       -0.00
(Free)E + p*V (eV/cell)     -931.1687
Target enthalpy (eV/cell)     -931.7963

LUA/NEB running NEB image 1 / 5

Deleting h2o_neb.DM for a clean restart...

                     ====================================
                        LUA coord. step =      2
                     ====================================

outcell: Unit cell vectors (Ang):
       15.000000    0.000000    0.000000
        0.000000   15.000000    0.000000
        0.000000    0.000000   15.000000

outcell: Cell vector modules (Ang)   :   15.000000   15.000000   15.000000
outcell: Cell angles (23,13,12) (deg):     90.0000     90.0000     90.0000
outcell: Cell volume (Ang**3)        :   3375.0000
<dSpData1D:S at geom step 2
  <sparsity:sparsity for geom step 2
    nrows_g=46 nrows=6 sparsity=.1158 nnzs=245, refcount: 7>
  <dData1D:(new from dSpData1D) n=245, refcount: 1>
refcount: 1>
new_DM -- step:     3
Initializing Density Matrix...

Attempting to read DM from file... Failed...
DM filled with atomic data:
<dSpData2D:DM initialized from atoms
  <sparsity:sparsity for geom step 2
    nrows_g=46 nrows=6 sparsity=.1158 nnzs=245, refcount: 8>
  <dData2D:DM n=245 m=1, refcount: 1>
refcount: 1>

No. of atoms with KB's overlaping orbs in proc 0. Max # of overlaps:       4      41
New grid distribution:   1
           1       1:   72    1:   36    1:   18
           2       1:   72    1:   36   19:   36
           3       1:   72    1:   36   37:   54
           4       1:   72    1:   36   55:   72
           5       1:   72   37:   72    1:   18
           6       1:   72   37:   72   19:   36
           7       1:   72   37:   72   37:   54
           8       1:   72   37:   72   55:   72

InitMesh: MESH =   144 x   144 x   144 =     2985984
InitMesh: (bp) =    72 x    72 x    72 =      373248
InitMesh: Mesh cutoff (required, used) =   250.000   254.709 Ry
ExtMesh (bp) on 0 =   124 x    88 x    70 =      763840
New grid distribution:   2
           1      10:   72    1:   13    1:   18
           2       1:   23   15:   72   19:   72
           3      11:   72    1:   14   19:   72
           4       1:   10    1:   14   19:   72
           5      11:   72   14:   72    1:   18
           6      24:   72   15:   72   19:   72
           7       1:   10   14:   72    1:   18
           8       1:    9    1:   13    1:   18
New grid distribution:   3
           1      13:   72   16:   72    1:   16
           2      16:   72    1:   16   17:   72
           3      16:   72    1:   15    1:   16
           4       1:   12   16:   72    1:   16
           5       1:   15    1:   16   17:   72
           6      14:   72   17:   72   17:   72
           7       1:   13   17:   72   17:   72
           8       1:   15    1:   15    1:   16
Setting up quadratic distribution...
ExtMesh (bp) on 0 =   115 x    65 x    70 =      523250
PhiOnMesh: Number of (b)points on node 0 =                14742
PhiOnMesh: nlist on node 0 =                32531

        iscf     Eharris(eV)        E_KS(eV)     FreeEng(eV)     dDmax    Ef(eV) dHmax(eV)
   scf:    1     -933.538619     -930.072690     -930.072690  1.451559 -4.204422  6.825395
   scf:    2     -930.398685     -930.237089     -930.237089  0.004678 -4.119538  6.491349
   scf:    3     -931.901684     -931.668109     -931.668109  0.081415 -2.486438  0.576659
   scf:    4     -931.693491     -931.681552     -931.681552  0.003050 -2.532134  0.366932
   scf:    5     -931.684348     -931.682957     -931.682957  0.001033 -2.529176  0.360623
   scf:    6     -931.714061     -931.700693     -931.700693  0.019321 -2.473845  0.277606
   scf:    7     -931.700982     -931.700838     -931.700838  0.000333 -2.471610  0.275199
   scf:    8     -931.702103     -931.703173     -931.703173  0.023044 -2.313605  0.212476
   scf:    9     -931.703098     -931.703136     -931.703136  0.000776 -2.305115  0.203086
   scf:   10     -931.701909     -931.702541     -931.702541  0.007195 -2.222532  0.141410
   scf:   11     -931.702960     -931.702752     -931.702752  0.000332 -2.222395  0.131042
   scf:   12     -931.705267     -931.704176     -931.704176  0.003205 -2.221573  0.064177
   scf:   13     -931.704205     -931.704191     -931.704191  0.000081 -2.222023  0.063527
   scf:   14     -931.704850     -931.704640     -931.704640  0.005085 -2.250865  0.038237
   scf:   15     -931.704641     -931.704640     -931.704640  0.000162 -2.252244  0.037947
   scf:   16     -931.704477     -931.704571     -931.704571  0.002670 -2.275708  0.036487
   scf:   17     -931.704582     -931.704576     -931.704576  0.000017 -2.276586  0.034216
   scf:   18     -931.704641     -931.704611     -931.704611  0.000121 -2.282739  0.016806
   scf:   19     -931.704618     -931.704615     -931.704615  0.000053 -2.282555  0.015867
   scf:   20     -931.704681     -931.704654     -931.704654  0.000903 -2.279404  0.010069
   scf:   21     -931.704654     -931.704654     -931.704654  0.000012 -2.279333  0.009990
   scf:   22     -931.704659     -931.704659     -931.704659  0.000884 -2.274041  0.007731
   scf:   23     -931.704658     -931.704658     -931.704658  0.000033 -2.273719  0.007463
   scf:   24     -931.704654     -931.704656     -931.704656  0.000311 -2.270495  0.006050
   scf:   25     -931.704657     -931.704657     -931.704657  0.000011 -2.270433  0.005623
   scf:   26     -931.704660     -931.704659     -931.704659  0.000098 -2.269929  0.002773
   scf:   27     -931.704659     -931.704659     -931.704659  0.000007 -2.269948  0.002742
   scf:   28     -931.704661     -931.704660     -931.704660  0.000201 -2.270552  0.001905
   scf:   29     -931.704660     -931.704660     -931.704660  0.000006 -2.270584  0.001859
   scf:   30     -931.704660     -931.704660     -931.704660  0.000150 -2.271455  0.001531
   scf:   31     -931.704660     -931.704660     -931.704660  0.000005 -2.271510  0.001477
   scf:   32     -931.704660     -931.704660     -931.704660  0.000041 -2.272014  0.000929

SCF Convergence by DM+H criterion
max |DM_out - DM_in|         :     0.0000406152
max |H_out - H_in|      (eV) :     0.0009287307
SCF cycle converged after 32 iterations

Using DM_out to compute the final energy and forces
No. of atoms with KB's overlaping orbs in proc 0. Max # of overlaps:       4      41

siesta: E_KS(eV) =             -931.7047

siesta: Atomic forces (eV/Ang):
----------------------------------------
   Tot    0.005986   -0.014986   -0.000000
----------------------------------------
   Max    0.852384
   Res    0.475369    sqrt( Sum f_i^2 / 3N )
----------------------------------------
   Max    0.852384    constrained

Stress-tensor-Voigt (kbar):       -1.06       -0.35       -0.00       -0.19        0.00        0.00
(Free)E + p*V (eV/cell)     -930.7153
Target enthalpy (eV/cell)     -931.7047

LUA/NEB running NEB image 2 / 5

Saving h2o_neb.DM to h2o_neb.DM.1

                     ====================================
                        LUA coord. step =      3
                     ====================================

outcell: Unit cell vectors (Ang):
       15.000000    0.000000    0.000000
        0.000000   15.000000    0.000000
        0.000000    0.000000   15.000000

outcell: Cell vector modules (Ang)   :   15.000000   15.000000   15.000000
outcell: Cell angles (23,13,12) (deg):     90.0000     90.0000     90.0000
outcell: Cell volume (Ang**3)        :   3375.0000
<dSpData1D:S at geom step 3
  <sparsity:sparsity for geom step 3
    nrows_g=46 nrows=6 sparsity=.1144 nnzs=242, refcount: 7>
  <dData1D:(new from dSpData1D) n=242, refcount: 1>
refcount: 1>
new_DM -- step:     4
Initializing Density Matrix...

Attempting to read DM from file... Failed...
DM filled with atomic data:
<dSpData2D:DM initialized from atoms
  <sparsity:sparsity for geom step 3
    nrows_g=46 nrows=6 sparsity=.1144 nnzs=242, refcount: 8>
  <dData2D:DM n=242 m=1, refcount: 1>
refcount: 1>

No. of atoms with KB's overlaping orbs in proc 0. Max # of overlaps:       4      41
New grid distribution:   1
           1       1:   72    1:   36    1:   18
           2       1:   72    1:   36   19:   36
           3       1:   72    1:   36   37:   54
           4       1:   72    1:   36   55:   72
           5       1:   72   37:   72    1:   18
           6       1:   72   37:   72   19:   36
           7       1:   72   37:   72   37:   54
           8       1:   72   37:   72   55:   72

InitMesh: MESH =   144 x   144 x   144 =     2985984
InitMesh: (bp) =    72 x    72 x    72 =      373248
InitMesh: Mesh cutoff (required, used) =   250.000   254.709 Ry
ExtMesh (bp) on 0 =   124 x    88 x    70 =      763840
New grid distribution:   2
           1      11:   72   14:   72    1:   19
           2       9:   72    1:   13    1:   19
           3      10:   72    1:   14   20:   72
           4       1:    9    1:   14   20:   72
           5       1:   10   14:   72    1:   19
           6       1:    8    1:   13    1:   19
           7      18:   72   15:   72   20:   72
           8       1:   17   15:   72   20:   72
New grid distribution:   3
           1      15:   72    1:   16    1:   16
           2      15:   72    1:   17   17:   72
           3       1:   12   18:   72   17:   72
           4       1:   11   17:   72    1:   16
           5      12:   72   17:   72    1:   16
           6      13:   72   18:   72   17:   72
           7       1:   14    1:   17   17:   72
           8       1:   14    1:   16    1:   16
Setting up quadratic distribution...
ExtMesh (bp) on 0 =   114 x   111 x    71 =      898434
PhiOnMesh: Number of (b)points on node 0 =                69502
PhiOnMesh: nlist on node 0 =                33810

        iscf     Eharris(eV)        E_KS(eV)     FreeEng(eV)     dDmax    Ef(eV) dHmax(eV)
   scf:    1     -933.571775     -930.098674     -930.098674  1.454876 -4.225391  6.881522
   scf:    2     -930.420134     -930.260778     -930.260778  0.004787 -4.139622  6.547842
   scf:    3     -931.904928     -931.674445     -931.674445  0.082834 -2.484362  0.620603
   scf:    4     -931.699603     -931.687747     -931.687747  0.003036 -2.530217  0.414751
   scf:    5     -931.690857     -931.689310     -931.689310  0.001073 -2.528154  0.407242
   scf:    6     -931.717874     -931.705247     -931.705247  0.015291 -2.499255  0.326222
   scf:    7     -931.705678     -931.705463     -931.705463  0.000385 -2.497174  0.323644
   scf:    8     -931.710792     -931.709981     -931.709981  0.022255 -2.374626  0.248308
   scf:    9     -931.709782     -931.709885     -931.709885  0.001340 -2.364069  0.242223
   scf:   10     -931.704342     -931.707341     -931.707341  0.013015 -2.257044  0.206363
   scf:   11     -931.707787     -931.707566     -931.707566  0.000126 -2.251325  0.192262
   scf:   12     -931.709970     -931.708849     -931.708849  0.000715 -2.218001  0.113350
   scf:   13     -931.709195     -931.709026     -931.709026  0.000359 -2.218790  0.108921
   scf:   14     -931.711905     -931.710661     -931.710661  0.005022 -2.230073  0.079872
   scf:   15     -931.710686     -931.710674     -931.710674  0.000081 -2.230469  0.079421
   scf:   16     -931.711215     -931.711050     -931.711050  0.005419 -2.257658  0.061293
   scf:   17     -931.711043     -931.711047     -931.711047  0.000378 -2.260291  0.060842
   scf:   18     -931.710642     -931.710864     -931.710864  0.003578 -2.286459  0.060404
   scf:   19     -931.710864     -931.710864     -931.710864  0.000165 -2.288857  0.057062
   scf:   20     -931.710882     -931.710874     -931.710874  0.000706 -2.300784  0.037507
   scf:   21     -931.710911     -931.710893     -931.710893  0.000107 -2.300920  0.034532
   scf:   22     -931.711100     -931.711005     -931.711005  0.000861 -2.301819  0.024027
   scf:   23     -931.711011     -931.711008     -931.711008  0.000041 -2.301691  0.023894
   scf:   24     -931.711129     -931.711077     -931.711077  0.001398 -2.297259  0.019176
   scf:   25     -931.711080     -931.711078     -931.711078  0.000061 -2.296940  0.018736
   scf:   26     -931.711079     -931.711085     -931.711085  0.001345 -2.289620  0.016814
   scf:   27     -931.711083     -931.711084     -931.711084  0.000100 -2.288797  0.016140
   scf:   28     -931.711063     -931.711074     -931.711074  0.000628 -2.283246  0.013896
   scf:   29     -931.711076     -931.711075     -931.711075  0.000008 -2.282877  0.012851
   scf:   30     -931.711085     -931.711080     -931.711080  0.000061 -2.280811  0.007911
   scf:   31     -931.711082     -931.711081     -931.711081  0.000026 -2.280819  0.007696
   scf:   32     -931.711096     -931.711089     -931.711089  0.000320 -2.280953  0.006467
   scf:   33     -931.711089     -931.711089     -931.711089  0.000013 -2.280992  0.006405
   scf:   34     -931.711095     -931.711092     -931.711092  0.000372 -2.282125  0.004841
   scf:   35     -931.711093     -931.711093     -931.711093  0.000025 -2.282256  0.004740
   scf:   36     -931.711091     -931.711092     -931.711092  0.000287 -2.283824  0.004191
   scf:   37     -931.711092     -931.711092     -931.711092  0.000018 -2.284000  0.004008
   scf:   38     -931.711091     -931.711092     -931.711092  0.000105 -2.285150  0.002981
   scf:   39     -931.711092     -931.711092     -931.711092  0.000003 -2.285222  0.002932
   scf:   40     -931.711093     -931.711092     -931.711092  0.000029 -2.285743  0.002508
   scf:   41     -931.711092     -931.711092     -931.711092  0.000006 -2.285751  0.002429
   scf:   42     -931.711093     -931.711093     -931.711093  0.000080 -2.285843  0.001723
   scf:   43     -931.711093     -931.711093     -931.711093  0.000006 -2.285832  0.001693
   scf:   44     -931.711093     -931.711093     -931.711093  0.000085 -2.285650  0.001424
   scf:   45     -931.711093     -931.711093     -931.711093  0.000006 -2.285618  0.001384
   scf:   46     -931.711093     -931.711093     -931.711093  0.000059 -2.285302  0.000949

SCF Convergence by DM+H criterion
max |DM_out - DM_in|         :     0.0000589447
max |H_out - H_in|      (eV) :     0.0009490088
SCF cycle converged after 46 iterations

Using DM_out to compute the final energy and forces
No. of atoms with KB's overlaping orbs in proc 0. Max # of overlaps:       4      41

siesta: E_KS(eV) =             -931.7111

siesta: Atomic forces (eV/Ang):
----------------------------------------
   Tot   -0.004206   -0.000864   -0.000000
----------------------------------------
   Max    0.924166
   Res    0.481491    sqrt( Sum f_i^2 / 3N )
----------------------------------------
   Max    0.924166    constrained

Stress-tensor-Voigt (kbar):       -0.92       -0.49       -0.00       -0.13        0.00        0.00
(Free)E + p*V (eV/cell)     -930.7217
Target enthalpy (eV/cell)     -931.7111

LUA/NEB running NEB image 3 / 5

Saving h2o_neb.DM to h2o_neb.DM.2

                     ====================================
                        LUA coord. step =      4
                     ====================================

outcell: Unit cell vectors (Ang):
       15.000000    0.000000    0.000000
        0.000000   15.000000    0.000000
        0.000000    0.000000   15.000000

outcell: Cell vector modules (Ang)   :   15.000000   15.000000   15.000000
outcell: Cell angles (23,13,12) (deg):     90.0000     90.0000     90.0000
outcell: Cell volume (Ang**3)        :   3375.0000
<dSpData1D:S at geom step 4
  <sparsity:sparsity for geom step 4
    nrows_g=46 nrows=6 sparsity=.1106 nnzs=234, refcount: 7>
  <dData1D:(new from dSpData1D) n=234, refcount: 1>
refcount: 1>
new_DM -- step:     5
Initializing Density Matrix...

Attempting to read DM from file... Failed...
DM filled with atomic data:
<dSpData2D:DM initialized from atoms
  <sparsity:sparsity for geom step 4
    nrows_g=46 nrows=6 sparsity=.1106 nnzs=234, refcount: 8>
  <dData2D:DM n=234 m=1, refcount: 1>
refcount: 1>

No. of atoms with KB's overlaping orbs in proc 0. Max # of overlaps:       4      41
New grid distribution:   1
           1       1:   72    1:   36    1:   18
           2       1:   72    1:   36   19:   36
           3       1:   72    1:   36   37:   54
           4       1:   72    1:   36   55:   72
           5       1:   72   37:   72    1:   18
           6       1:   72   37:   72   19:   36
           7       1:   72   37:   72   37:   54
           8       1:   72   37:   72   55:   72

InitMesh: MESH =   144 x   144 x   144 =     2985984
InitMesh: (bp) =    72 x    72 x    72 =      373248
InitMesh: Mesh cutoff (required, used) =   250.000   254.709 Ry
ExtMesh (bp) on 0 =   124 x    88 x    70 =      763840
New grid distribution:   2
           1      11:   72   15:   72    1:   20
           2       9:   72    1:   14    1:   20
           3      10:   72    1:   15   21:   72
           4       1:    9    1:   15   21:   72
           5       1:   10   15:   72    1:   20
           6       1:    8    1:   14    1:   20
           7      16:   72   16:   72   21:   72
           8       1:   15   16:   72   21:   72
New grid distribution:   3
           1      14:   72    1:   17    1:   16
           2      14:   72    1:   18   17:   72
           3       1:   12   19:   72   17:   72
           4       1:   11   18:   72    1:   16
           5      12:   72   18:   72    1:   16
           6      13:   72   19:   72   17:   72
           7       1:   13    1:   18   17:   72
           8       1:   13    1:   17    1:   16
Setting up quadratic distribution...
ExtMesh (bp) on 0 =   114 x   110 x    72 =      902880
PhiOnMesh: Number of (b)points on node 0 =                71920
PhiOnMesh: nlist on node 0 =                32653

        iscf     Eharris(eV)        E_KS(eV)     FreeEng(eV)     dDmax    Ef(eV) dHmax(eV)
   scf:    1     -933.677499     -930.067389     -930.067389  1.443864 -4.183121  7.081310
   scf:    2     -930.387616     -930.228860     -930.228860  0.004897 -4.093582  6.735959
   scf:    3     -931.860871     -931.642425     -931.642425  0.084608 -2.347944  0.588582
   scf:    4     -931.669631     -931.656789     -931.656789  0.003197 -2.396256  0.352792
   scf:    5     -931.659796     -931.658299     -931.658299  0.001050 -2.392461  0.345923
   scf:    6     -931.692476     -931.677912     -931.677912  0.020388 -2.318008  0.263013
   scf:    7     -931.678140     -931.678026     -931.678026  0.000267 -2.316039  0.261237
   scf:    8     -931.679305     -931.680360     -931.680360  0.022898 -2.143193  0.218733
   scf:    9     -931.680369     -931.680365     -931.680365  0.000580 -2.135335  0.209040
   scf:   10     -931.680172     -931.680282     -931.680282  0.005776 -2.053572  0.135465
   scf:   11     -931.680586     -931.680435     -931.680435  0.000324 -2.054021  0.126483
   scf:   12     -931.682413     -931.681599     -931.681599  0.003793 -2.059643  0.049379
   scf:   13     -931.681611     -931.681605     -931.681605  0.000047 -2.059985  0.048964
   scf:   14     -931.681828     -931.681774     -931.681774  0.003061 -2.082829  0.038243
   scf:   15     -931.681774     -931.681774     -931.681774  0.000108 -2.084085  0.037795
   scf:   16     -931.681712     -931.681747     -931.681747  0.001631 -2.103733  0.031859
   scf:   17     -931.681755     -931.681751     -931.681751  0.000020 -2.104355  0.029842
   scf:   18     -931.681798     -931.681777     -931.681777  0.000182 -2.109461  0.012221
   scf:   19     -931.681779     -931.681778     -931.681778  0.000025 -2.109334  0.011936
   scf:   20     -931.681801     -931.681793     -931.681793  0.000519 -2.106600  0.006549
   scf:   21     -931.681793     -931.681793     -931.681793  0.000013 -2.106446  0.006369
   scf:   22     -931.681790     -931.681792     -931.681792  0.000324 -2.102469  0.007187
   scf:   23     -931.681792     -931.681792     -931.681792  0.000009 -2.102227  0.006887
   scf:   24     -931.681793     -931.681792     -931.681792  0.000072 -2.100111  0.004526
   scf:   25     -931.681793     -931.681793     -931.681793  0.000006 -2.100087  0.004206
   scf:   26     -931.681794     -931.681794     -931.681794  0.000061 -2.099864  0.001886
   scf:   27     -931.681794     -931.681794     -931.681794  0.000002 -2.099884  0.001848
   scf:   28     -931.681794     -931.681794     -931.681794  0.000071 -2.100512  0.001316
   scf:   29     -931.681794     -931.681794     -931.681794  0.000002 -2.100553  0.001311
   scf:   30     -931.681794     -931.681794     -931.681794  0.000037 -2.101211  0.001191
   scf:   31     -931.681794     -931.681794     -931.681794  0.000001 -2.101241  0.001123
   scf:   32     -931.681794     -931.681794     -931.681794  0.000006 -2.101495  0.000507

SCF Convergence by DM+H criterion
max |DM_out - DM_in|         :     0.0000055266
max |H_out - H_in|      (eV) :     0.0005073060
SCF cycle converged after 32 iterations

Using DM_out to compute the final energy and forces
No. of atoms with KB's overlaping orbs in proc 0. Max # of overlaps:       4      41

siesta: E_KS(eV) =             -931.6818

siesta: Atomic forces (eV/Ang):
----------------------------------------
   Tot   -0.005491    0.004184   -0.000000
----------------------------------------
   Max    0.820009
   Res    0.466077    sqrt( Sum f_i^2 / 3N )
----------------------------------------
   Max    0.751566    constrained

Stress-tensor-Voigt (kbar):       -0.77       -0.57       -0.00        0.05        0.00        0.00
(Free)E + p*V (eV/cell)     -930.7411
Target enthalpy (eV/cell)     -931.6818

LUA/NEB running NEB image 4 / 5

Saving h2o_neb.DM to h2o_neb.DM.3

                     ====================================
                        LUA coord. step =      5
                     ====================================

outcell: Unit cell vectors (Ang):
       15.000000    0.000000    0.000000
        0.000000   15.000000    0.000000
        0.000000    0.000000   15.000000

outcell: Cell vector modules (Ang)   :   15.000000   15.000000   15.000000
outcell: Cell angles (23,13,12) (deg):     90.0000     90.0000     90.0000
outcell: Cell volume (Ang**3)        :   3375.0000
<dSpData1D:S at geom step 5
  <sparsity:sparsity for geom step 5
    nrows_g=46 nrows=6 sparsity=.1016 nnzs=215, refcount: 7>
  <dData1D:(new from dSpData1D) n=215, refcount: 1>
refcount: 1>
new_DM -- step:     6
Initializing Density Matrix...

Attempting to read DM from file... Failed...
DM filled with atomic data:
<dSpData2D:DM initialized from atoms
  <sparsity:sparsity for geom step 5
    nrows_g=46 nrows=6 sparsity=.1016 nnzs=215, refcount: 8>
  <dData2D:DM n=215 m=1, refcount: 1>
refcount: 1>

No. of atoms with KB's overlaping orbs in proc 0. Max # of overlaps:       3      28
New grid distribution:   1
           1       1:   72    1:   36    1:   18
           2       1:   72    1:   36   19:   36
           3       1:   72    1:   36   37:   54
           4       1:   72    1:   36   55:   72
           5       1:   72   37:   72    1:   18
           6       1:   72   37:   72   19:   36
           7       1:   72   37:   72   37:   54
           8       1:   72   37:   72   55:   72

InitMesh: MESH =   144 x   144 x   144 =     2985984
InitMesh: (bp) =    72 x    72 x    72 =      373248
InitMesh: Mesh cutoff (required, used) =   250.000   254.709 Ry
ExtMesh (bp) on 0 =   124 x    88 x    70 =      763840
New grid distribution:   2
           1      11:   72   16:   72    1:   20
           2       9:   72    1:   15    1:   20
           3      10:   72    1:   16   21:   72
           4       1:    9    1:   16   21:   72
           5       1:   10   16:   72    1:   20
           6       1:    8    1:   15    1:   20
           7      17:   72   17:   72   21:   72
           8       1:   16   17:   72   21:   72
New grid distribution:   3
           1      14:   72    1:   18    1:   14
           2      14:   72    1:   18   15:   72
           3       1:   14   19:   72   15:   72
           4       1:   12   19:   72    1:   14
           5      13:   72   19:   72    1:   14
           6      15:   72   19:   72   15:   72
           7       1:   13    1:   18   15:   72
           8       1:   13    1:   18    1:   14
Setting up quadratic distribution...
ExtMesh (bp) on 0 =   114 x   109 x    72 =      894672
PhiOnMesh: Number of (b)points on node 0 =                70680
PhiOnMesh: nlist on node 0 =                32821

        iscf     Eharris(eV)        E_KS(eV)     FreeEng(eV)     dDmax    Ef(eV) dHmax(eV)
   scf:    1     -933.960310     -930.112342     -930.112342  1.436076 -4.185927  7.515054
   scf:    2     -930.426597     -930.270790     -930.270790  0.005122 -4.093847  7.157723
   scf:    3     -931.853367     -931.659962     -931.659962  0.088267 -2.335146  0.598527
   scf:    4     -931.689181     -931.675306     -931.675306  0.003298 -2.384198  0.389484
   scf:    5     -931.678786     -931.677054     -931.677054  0.001088 -2.382076  0.383736
   scf:    6     -931.713779     -931.697970     -931.697970  0.018943 -2.344288  0.326019
   scf:    7     -931.698213     -931.698092     -931.698092  0.000235 -2.342831  0.323978
   scf:    8     -931.699936     -931.701312     -931.701312  0.024624 -2.186411  0.201456
   scf:    9     -931.701294     -931.701303     -931.701303  0.000631 -2.179196  0.193809
   scf:   10     -931.700784     -931.701056     -931.701056  0.006528 -2.100644  0.134680
   scf:   11     -931.701442     -931.701251     -931.701251  0.000341 -2.100864  0.125533
   scf:   12     -931.703714     -931.702693     -931.702693  0.003837 -2.103657  0.061350
   scf:   13     -931.702708     -931.702701     -931.702701  0.000044 -2.103980  0.060749
   scf:   14     -931.703001     -931.702929     -931.702929  0.003106 -2.127309  0.033647
   scf:   15     -931.702928     -931.702928     -931.702928  0.000105 -2.128426  0.032890
   scf:   16     -931.702849     -931.702894     -931.702894  0.001746 -2.147512  0.026708
   scf:   17     -931.702903     -931.702899     -931.702899  0.000015 -2.148048  0.024977
   scf:   18     -931.702958     -931.702931     -931.702931  0.000146 -2.152650  0.013972
   scf:   19     -931.702934     -931.702933     -931.702933  0.000022 -2.152520  0.013667
   scf:   20     -931.702960     -931.702950     -931.702950  0.000468 -2.149626  0.007013
   scf:   21     -931.702951     -931.702951     -931.702951  0.000012 -2.149450  0.006720
   scf:   22     -931.702947     -931.702950     -931.702950  0.000264 -2.145422  0.006498
   scf:   23     -931.702950     -931.702950     -931.702950  0.000006 -2.145191  0.006211
   scf:   24     -931.702950     -931.702950     -931.702950  0.000044 -2.143191  0.003557
   scf:   25     -931.702950     -931.702950     -931.702950  0.000005 -2.143177  0.003291
   scf:   26     -931.702952     -931.702951     -931.702951  0.000054 -2.143052  0.002125
   scf:   27     -931.702951     -931.702951     -931.702951  0.000002 -2.143074  0.002081
   scf:   28     -931.702952     -931.702952     -931.702952  0.000053 -2.143743  0.001329
   scf:   29     -931.702952     -931.702952     -931.702952  0.000002 -2.143786  0.001304
   scf:   30     -931.702952     -931.702952     -931.702952  0.000025 -2.144423  0.000952

SCF Convergence by DM+H criterion
max |DM_out - DM_in|         :     0.0000250594
max |H_out - H_in|      (eV) :     0.0009522711
SCF cycle converged after 30 iterations

Using DM_out to compute the final energy and forces
No. of atoms with KB's overlaping orbs in proc 0. Max # of overlaps:       3      28

siesta: E_KS(eV) =             -931.7030

siesta: Atomic forces (eV/Ang):
----------------------------------------
   Tot   -0.002194   -0.010454   -0.000000
----------------------------------------
   Max    0.801199
   Res    0.473040    sqrt( Sum f_i^2 / 3N )
----------------------------------------
   Max    0.801199    constrained

Stress-tensor-Voigt (kbar):       -0.79       -0.38       -0.00        0.19        0.00        0.00
(Free)E + p*V (eV/cell)     -930.8816
Target enthalpy (eV/cell)     -931.7030

LUA/NEB running NEB image 5 / 5

Saving h2o_neb.DM to h2o_neb.DM.4

                     ====================================
                        LUA coord. step =      6
                     ====================================

outcell: Unit cell vectors (Ang):
       15.000000    0.000000    0.000000
        0.000000   15.000000    0.000000
        0.000000    0.000000   15.000000

outcell: Cell vector modules (Ang)   :   15.000000   15.000000   15.000000
outcell: Cell angles (23,13,12) (deg):     90.0000     90.0000     90.0000
outcell: Cell volume (Ang**3)        :   3375.0000
<dSpData1D:S at geom step 6
  <sparsity:sparsity for geom step 6
    nrows_g=46 nrows=6 sparsity=.1007 nnzs=213, refcount: 7>
  <dData1D:(new from dSpData1D) n=213, refcount: 1>
refcount: 1>
new_DM -- step:     7
Initializing Density Matrix...

Attempting to read DM from file... Failed...
DM filled with atomic data:
<dSpData2D:DM initialized from atoms
  <sparsity:sparsity for geom step 6
    nrows_g=46 nrows=6 sparsity=.1007 nnzs=213, refcount: 8>
  <dData2D:DM n=213 m=1, refcount: 1>
refcount: 1>

No. of atoms with KB's overlaping orbs in proc 0. Max # of overlaps:       3      27
New grid distribution:   1
           1       1:   72    1:   36    1:   18
           2       1:   72    1:   36   19:   36
           3       1:   72    1:   36   37:   54
           4       1:   72    1:   36   55:   72
           5       1:   72   37:   72    1:   18
           6       1:   72   37:   72   19:   36
           7       1:   72   37:   72   37:   54
           8       1:   72   37:   72   55:   72

InitMesh: MESH =   144 x   144 x   144 =     2985984
InitMesh: (bp) =    72 x    72 x    72 =      373248
InitMesh: Mesh cutoff (required, used) =   250.000   254.709 Ry
ExtMesh (bp) on 0 =   124 x    88 x    70 =      763840
New grid distribution:   2
           1      11:   72   16:   72    1:   20
           2      10:   72    1:   15    1:   20
           3      11:   72    1:   16   21:   72
           4       1:   10    1:   16   21:   72
           5       1:   10   16:   72    1:   20
           6       1:    9    1:   15    1:   20
           7      22:   72   17:   72   21:   72
           8       1:   21   17:   72   21:   72
New grid distribution:   3
           1       1:   16   19:   72    1:   13
           2       1:   31   20:   72   14:   72
           3      15:   72    1:   19   14:   72
           4       1:   14    1:   19   14:   72
           5      17:   72   19:   72    1:   13
           6      32:   72   20:   72   14:   72
           7      15:   72    1:   18    1:   13
           8       1:   14    1:   18    1:   13
Setting up quadratic distribution...
ExtMesh (bp) on 0 =   114 x   109 x    72 =      894672
PhiOnMesh: Number of (b)points on node 0 =                70680
PhiOnMesh: nlist on node 0 =                35541

        iscf     Eharris(eV)        E_KS(eV)     FreeEng(eV)     dDmax    Ef(eV) dHmax(eV)
   scf:    1     -934.263650     -930.209729     -930.209729  1.431399 -4.179102  7.781511
   scf:    2     -930.516482     -930.364389     -930.364389  0.005302 -4.086648  7.417874
   scf:    3     -931.886087     -931.718193     -931.718193  0.093124 -2.323613  0.687730
   scf:    4     -931.748602     -931.734095     -931.734095  0.003364 -2.372314  0.469198
   scf:    5     -931.738508     -931.736315     -931.736315  0.001202 -2.372323  0.462869
   scf:    6     -931.771061     -931.755490     -931.755490  0.013997 -2.371270  0.419781
   scf:    7     -931.756061     -931.755776     -931.755776  0.000365 -2.370037  0.417293
   scf:    8     -931.766296     -931.763303     -931.763303  0.020711 -2.297047  0.297415
   scf:    9     -931.763252     -931.763283     -931.763283  0.001422 -2.289061  0.294100
   scf:   10     -931.754318     -931.759522     -931.759522  0.016588 -2.190089  0.280368
   scf:   11     -931.759501     -931.759512     -931.759512  0.000839 -2.179627  0.271735
   scf:   12     -931.759975     -931.759760     -931.759760  0.003877 -2.123750  0.211601
   scf:   13     -931.760611     -931.760189     -931.760189  0.000444 -2.122133  0.197003
   scf:   14     -931.764742     -931.762673     -931.762673  0.003408 -2.110720  0.126015
   scf:   15     -931.762794     -931.762734     -931.762734  0.000164 -2.111080  0.125143
   scf:   16     -931.764909     -931.764058     -931.764058  0.005980 -2.124669  0.093017
   scf:   17     -931.764091     -931.764075     -931.764075  0.000238 -2.125749  0.090639
   scf:   18     -931.763698     -931.763994     -931.763994  0.005373 -2.151373  0.073545
   scf:   19     -931.763947     -931.763971     -931.763971  0.000408 -2.154642  0.070786
   scf:   20     -931.763647     -931.763812     -931.763812  0.002313 -2.174909  0.069782
   scf:   21     -931.763872     -931.763843     -931.763843  0.000049 -2.176407  0.065264
   scf:   22     -931.764125     -931.763992     -931.763992  0.000316 -2.184289  0.039245
   scf:   23     -931.764023     -931.764008     -931.764008  0.000099 -2.184285  0.037133
   scf:   24     -931.764266     -931.764154     -931.764154  0.001334 -2.184150  0.032667
   scf:   25     -931.764158     -931.764156     -931.764156  0.000032 -2.184069  0.032415
   scf:   26     -931.764208     -931.764193     -931.764193  0.001610 -2.179743  0.022245
   scf:   27     -931.764192     -931.764193     -931.764193  0.000110 -2.179183  0.021807
   scf:   28     -931.764147     -931.764173     -931.764173  0.001129 -2.173003  0.020840
   scf:   29     -931.764173     -931.764173     -931.764173  0.000055 -2.172274  0.020131
   scf:   30     -931.764175     -931.764174     -931.764174  0.000252 -2.168301  0.015364
   scf:   31     -931.764178     -931.764176     -931.764176  0.000031 -2.168115  0.014319
   scf:   32     -931.764200     -931.764189     -931.764189  0.000245 -2.166741  0.010117
   scf:   33     -931.764190     -931.764189     -931.764189  0.000016 -2.166743  0.010034
   scf:   34     -931.764202     -931.764197     -931.764197  0.000413 -2.166835  0.007846
   scf:   35     -931.764197     -931.764197     -931.764197  0.000020 -2.166887  0.007639
   scf:   36     -931.764196     -931.764197     -931.764197  0.000388 -2.167997  0.005852
   scf:   37     -931.764197     -931.764197     -931.764197  0.000028 -2.168173  0.005511
   scf:   38     -931.764195     -931.764196     -931.764196  0.000186 -2.169459  0.005151
   scf:   39     -931.764196     -931.764196     -931.764196  0.000003 -2.169593  0.004847
   scf:   40     -931.764197     -931.764197     -931.764197  0.000020 -2.170389  0.002917
   scf:   41     -931.764197     -931.764197     -931.764197  0.000008 -2.170420  0.002728
   scf:   42     -931.764198     -931.764197     -931.764197  0.000088 -2.170752  0.002639
   scf:   43     -931.764198     -931.764197     -931.764197  0.000005 -2.170754  0.002605
   scf:   44     -931.764198     -931.764198     -931.764198  0.000105 -2.170781  0.001919
   scf:   45     -931.764198     -931.764198     -931.764198  0.000007 -2.170764  0.001877
   scf:   46     -931.764198     -931.764198     -931.764198  0.000078 -2.170543  0.001425
   scf:   47     -931.764198     -931.764198     -931.764198  0.000005 -2.170502  0.001378
   scf:   48     -931.764198     -931.764198     -931.764198  0.000027 -2.170221  0.001067
   scf:   49     -931.764198     -931.764198     -931.764198  0.000001 -2.170193  0.000994

SCF Convergence by DM+H criterion
max |DM_out - DM_in|         :     0.0000009256
max |H_out - H_in|      (eV) :     0.0009943242
SCF cycle converged after 49 iterations

Using DM_out to compute the final energy and forces
No. of atoms with KB's overlaping orbs in proc 0. Max # of overlaps:       3      27

siesta: E_KS(eV) =             -931.7642

siesta: Atomic forces (eV/Ang):
----------------------------------------
   Tot    0.007417   -0.001704   -0.000000
----------------------------------------
   Max    0.906186
   Res    0.482336    sqrt( Sum f_i^2 / 3N )
----------------------------------------
   Max    0.815981    constrained

Stress-tensor-Voigt (kbar):       -0.90       -0.09       -0.00        0.16        0.00        0.00
(Free)E + p*V (eV/cell)     -931.0679
Target enthalpy (eV/cell)     -931.7642

NEB step
NEB: max F on image 1 =    0.88557, climbing = false
NEB: max F on image 2 =    0.87805, climbing = false
NEB: max F on image 3 =    0.82479, climbing = true
NEB: max F on image 4 =    0.81112, climbing = false
NEB: max F on image 5 =    0.82255, climbing = false

LUA/NEB running NEB image 1 / 5

Saving h2o_neb.DM to h2o_neb.DM.5
Restoring h2o_neb.DM.1 to h2o_neb.DM

                     ====================================
                        LUA coord. step =      7
                     ====================================

outcell: Unit cell vectors (Ang):
       15.000000    0.000000    0.000000
        0.000000   15.000000    0.000000
        0.000000    0.000000   15.000000

outcell: Cell vector modules (Ang)   :   15.000000   15.000000   15.000000
outcell: Cell angles (23,13,12) (deg):     90.0000     90.0000     90.0000
outcell: Cell volume (Ang**3)        :   3375.0000
<dSpData1D:S at geom step 7
  <sparsity:sparsity for geom step 7
    nrows_g=46 nrows=6 sparsity=.1158 nnzs=245, refcount: 7>
  <dData1D:(new from dSpData1D) n=245, refcount: 1>
refcount: 1>
new_DM -- step:     8
Initializing Density Matrix...

Attempting to read DM from file... Succeeded...
DM from file:
<dSpData2D:IO-DM: h2o_neb.DM
  <sparsity:IO-DM: h2o_neb.DM
    nrows_g=46 nrows=6 sparsity=.1158 nnzs=245, refcount: 1>
  <dData2D:(new from dSpData2D) n=245 m=1, refcount: 1>
refcount: 1>

Note: For starting DM, Qtot, Tr[D*S] =         16.00000000         15.96881047
No. of atoms with KB's overlaping orbs in proc 0. Max # of overlaps:       4      41
New grid distribution:   1
           1       1:   72    1:   36    1:   18
           2       1:   72    1:   36   19:   36
           3       1:   72    1:   36   37:   54
           4       1:   72    1:   36   55:   72
           5       1:   72   37:   72    1:   18
           6       1:   72   37:   72   19:   36
           7       1:   72   37:   72   37:   54
           8       1:   72   37:   72   55:   72

InitMesh: MESH =   144 x   144 x   144 =     2985984
InitMesh: (bp) =    72 x    72 x    72 =      373248
InitMesh: Mesh cutoff (required, used) =   250.000   254.709 Ry
ExtMesh (bp) on 0 =   124 x    88 x    70 =      763840
New grid distribution:   2
           1      12:   72   14:   72    1:   19
           2      10:   72    1:   13    1:   19
           3      11:   72    1:   13   20:   72
           4       1:   10    1:   13   20:   72
           5       1:   11   14:   72    1:   19
           6       1:    9    1:   13    1:   19
           7      22:   72   14:   72   20:   72
           8       1:   21   14:   72   20:   72
New grid distribution:   3
           1      13:   72   16:   72    1:   16
           2      16:   72    1:   16   17:   72
           3      16:   72    1:   15    1:   16
           4       1:   12   16:   72    1:   16
           5       1:   15    1:   16   17:   72
           6      14:   72   17:   72   17:   72
           7       1:   13   17:   72   17:   72
           8       1:   15    1:   15    1:   16
Setting up quadratic distribution...
ExtMesh (bp) on 0 =   113 x   111 x    71 =      890553
PhiOnMesh: Number of (b)points on node 0 =                68381
PhiOnMesh: nlist on node 0 =                32777

        iscf     Eharris(eV)        E_KS(eV)     FreeEng(eV)     dDmax    Ef(eV) dHmax(eV)
   scf:    1     -931.972164     -931.707956     -931.707956  0.037687 -2.194123  0.625413
   scf:    2     -931.634423     -931.690408     -931.690408  0.018564 -2.544303  1.034707
   scf:    3     -931.726082     -931.715175     -931.715175  0.011206 -2.325960  0.044714
   scf:    4     -931.715221     -931.715198     -931.715198  0.000082 -2.325912  0.044141
   scf:    5     -931.715479     -931.715354     -931.715354  0.000767 -2.325725  0.038460
   scf:    6     -931.715365     -931.715359     -931.715359  0.000050 -2.325967  0.037796
   scf:    7     -931.715452     -931.715420     -931.715420  0.001090 -2.331509  0.023810
   scf:    8     -931.715421     -931.715421     -931.715421  0.000102 -2.332314  0.024596
   scf:    9     -931.715378     -931.715405     -931.715405  0.001007 -2.340682  0.031481
   scf:   10     -931.715401     -931.715403     -931.715403  0.000105 -2.341960  0.030410
   scf:   11     -931.715386     -931.715395     -931.715395  0.000492 -2.348358  0.023400
   scf:   12     -931.715401     -931.715398     -931.715398  0.000021 -2.348928  0.021263
   scf:   13     -931.715422     -931.715411     -931.715411  0.000111 -2.351665  0.013360
   scf:   14     -931.715414     -931.715412     -931.715412  0.000020 -2.351695  0.013061
   scf:   15     -931.715434     -931.715425     -931.715425  0.000189 -2.351887  0.010478
   scf:   16     -931.715426     -931.715425     -931.715425  0.000014 -2.351810  0.010247
   scf:   17     -931.715431     -931.715429     -931.715429  0.000232 -2.350415  0.007761
   scf:   18     -931.715429     -931.715429     -931.715429  0.000024 -2.350176  0.007949
   scf:   19     -931.715426     -931.715428     -931.715428  0.000204 -2.348019  0.009196
   scf:   20     -931.715428     -931.715428     -931.715428  0.000021 -2.347685  0.008810
   scf:   21     -931.715427     -931.715427     -931.715427  0.000099 -2.345979  0.006425
   scf:   22     -931.715428     -931.715428     -931.715428  0.000006 -2.345822  0.005826
   scf:   23     -931.715429     -931.715429     -931.715429  0.000034 -2.345006  0.004275
   scf:   24     -931.715429     -931.715429     -931.715429  0.000005 -2.344986  0.004168
   scf:   25     -931.715430     -931.715430     -931.715430  0.000043 -2.344833  0.003105
   scf:   26     -931.715430     -931.715430     -931.715430  0.000004 -2.344852  0.002978
   scf:   27     -931.715430     -931.715430     -931.715430  0.000052 -2.345138  0.002464
   scf:   28     -931.715430     -931.715430     -931.715430  0.000006 -2.345201  0.002498
   scf:   29     -931.715430     -931.715430     -931.715430  0.000045 -2.345711  0.002635
   scf:   30     -931.715430     -931.715430     -931.715430  0.000004 -2.345794  0.002507
   scf:   31     -931.715430     -931.715430     -931.715430  0.000022 -2.346237  0.001726
   scf:   32     -931.715430     -931.715430     -931.715430  0.000002 -2.346281  0.001561
   scf:   33     -931.715430     -931.715430     -931.715430  0.000010 -2.346532  0.001346
   scf:   34     -931.715430     -931.715430     -931.715430  0.000001 -2.346543  0.001309
   scf:   35     -931.715430     -931.715430     -931.715430  0.000010 -2.346631  0.000952

SCF Convergence by DM+H criterion
max |DM_out - DM_in|         :     0.0000097237
max |H_out - H_in|      (eV) :     0.0009524241
SCF cycle converged after 35 iterations

Using DM_out to compute the final energy and forces
No. of atoms with KB's overlaping orbs in proc 0. Max # of overlaps:       4      41

siesta: E_KS(eV) =             -931.7154

siesta: Atomic forces (eV/Ang):
----------------------------------------
   Tot    0.001019   -0.016877    0.000000
----------------------------------------
   Max    0.848040
   Res    0.391568    sqrt( Sum f_i^2 / 3N )
----------------------------------------
   Max    0.380310    constrained

Stress-tensor-Voigt (kbar):       -0.39        0.13       -0.00       -0.01        0.00       -0.00
(Free)E + p*V (eV/cell)     -931.5292
Target enthalpy (eV/cell)     -931.7154

LUA/NEB running NEB image 2 / 5

Saving h2o_neb.DM to h2o_neb.DM.1
Restoring h2o_neb.DM.2 to h2o_neb.DM

                     ====================================
                        LUA coord. step =      8
                     ====================================

outcell: Unit cell vectors (Ang):
       15.000000    0.000000    0.000000
        0.000000   15.000000    0.000000
        0.000000    0.000000   15.000000

outcell: Cell vector modules (Ang)   :   15.000000   15.000000   15.000000
outcell: Cell angles (23,13,12) (deg):     90.0000     90.0000     90.0000
outcell: Cell volume (Ang**3)        :   3375.0000
<dSpData1D:S at geom step 8
  <sparsity:sparsity for geom step 8
    nrows_g=46 nrows=6 sparsity=.1144 nnzs=242, refcount: 7>
  <dData1D:(new from dSpData1D) n=242, refcount: 1>
refcount: 1>
new_DM -- step:     9
Initializing Density Matrix...

Attempting to read DM from file... Succeeded...
DM from file:
<dSpData2D:IO-DM: h2o_neb.DM
  <sparsity:IO-DM: h2o_neb.DM
    nrows_g=46 nrows=6 sparsity=.1144 nnzs=242, refcount: 1>
  <dData2D:(new from dSpData2D) n=242 m=1, refcount: 1>
refcount: 1>

Note: For starting DM, Qtot, Tr[D*S] =         16.00000000         15.96868988
No. of atoms with KB's overlaping orbs in proc 0. Max # of overlaps:       4      41
New grid distribution:   1
           1       1:   72    1:   36    1:   18
           2       1:   72    1:   36   19:   36
           3       1:   72    1:   36   37:   54
           4       1:   72    1:   36   55:   72
           5       1:   72   37:   72    1:   18
           6       1:   72   37:   72   19:   36
           7       1:   72   37:   72   37:   54
           8       1:   72   37:   72   55:   72

InitMesh: MESH =   144 x   144 x   144 =     2985984
InitMesh: (bp) =    72 x    72 x    72 =      373248
InitMesh: Mesh cutoff (required, used) =   250.000   254.709 Ry
ExtMesh (bp) on 0 =   124 x    88 x    70 =      763840
New grid distribution:   2
           1      11:   72   14:   72    1:   19
           2       9:   72    1:   13    1:   19
           3      10:   72    1:   14   20:   72
           4       1:    9    1:   14   20:   72
           5       1:   10   14:   72    1:   19
           6       1:    8    1:   13    1:   19
           7      18:   72   15:   72   20:   72
           8       1:   17   15:   72   20:   72
New grid distribution:   3
           1      15:   72    1:   16    1:   16
[...]
----------------------------------------
   Max    0.846413
   Res    0.338920    sqrt( Sum f_i^2 / 3N )
----------------------------------------
   Max    0.036627    constrained

Stress-tensor-Voigt (kbar):       -0.60       -0.04       -0.00       -0.05        0.00        0.00
(Free)E + p*V (eV/cell)     -931.2716
Target enthalpy (eV/cell)     -931.7196

LUA/NEB running NEB image 2 / 5

Saving h2o_neb.DM to h2o_neb.DM.1
Restoring h2o_neb.DM.2 to h2o_neb.DM

                     ====================================
                        LUA coord. step =     98
                     ====================================

outcell: Unit cell vectors (Ang):
       15.000000    0.000000    0.000000
        0.000000   15.000000    0.000000
        0.000000    0.000000   15.000000

outcell: Cell vector modules (Ang)   :   15.000000   15.000000   15.000000
outcell: Cell angles (23,13,12) (deg):     90.0000     90.0000     90.0000
outcell: Cell volume (Ang**3)        :   3375.0000
<dSpData1D:S at geom step 98
  <sparsity:sparsity for geom step 98
    nrows_g=46 nrows=6 sparsity=.1144 nnzs=242, refcount: 7>
  <dData1D:(new from dSpData1D) n=242, refcount: 1>
refcount: 1>
new_DM -- step:    99
Initializing Density Matrix...

Attempting to read DM from file... Succeeded...
DM from file:
<dSpData2D:IO-DM: h2o_neb.DM
  <sparsity:IO-DM: h2o_neb.DM
    nrows_g=46 nrows=6 sparsity=.1144 nnzs=242, refcount: 1>
  <dData2D:(new from dSpData2D) n=242 m=1, refcount: 1>
refcount: 1>

No. of atoms with KB's overlaping orbs in proc 0. Max # of overlaps:       4      41
New grid distribution:   1
           1       1:   72    1:   36    1:   18
           2       1:   72    1:   36   19:   36
           3       1:   72    1:   36   37:   54
           4       1:   72    1:   36   55:   72
           5       1:   72   37:   72    1:   18
           6       1:   72   37:   72   19:   36
           7       1:   72   37:   72   37:   54
           8       1:   72   37:   72   55:   72

InitMesh: MESH =   144 x   144 x   144 =     2985984
InitMesh: (bp) =    72 x    72 x    72 =      373248
InitMesh: Mesh cutoff (required, used) =   250.000   254.709 Ry
ExtMesh (bp) on 0 =   124 x    88 x    70 =      763840
New grid distribution:   2
           1      11:   72   14:   72    1:   19
           2       9:   72    1:   13    1:   19
           3      10:   72    1:   14   20:   72
           4       1:    9    1:   14   20:   72
           5       1:   10   14:   72    1:   19
           6       1:    8    1:   13    1:   19
           7      18:   72   15:   72   20:   72
           8       1:   17   15:   72   20:   72
New grid distribution:   3
           1      15:   72    1:   16    1:   16
           2      15:   72    1:   17   17:   72
           3       1:   12   18:   72   17:   72
           4       1:   11   17:   72    1:   16
           5      12:   72   17:   72    1:   16
           6      13:   72   18:   72   17:   72
           7       1:   14    1:   17   17:   72
           8       1:   14    1:   16    1:   16
Setting up quadratic distribution...
ExtMesh (bp) on 0 =   114 x   111 x    71 =      898434
PhiOnMesh: Number of (b)points on node 0 =                69502
PhiOnMesh: nlist on node 0 =                33801

        iscf     Eharris(eV)        E_KS(eV)     FreeEng(eV)     dDmax    Ef(eV) dHmax(eV)
   scf:    1     -931.726913     -931.726400     -931.726400  0.000506 -2.333657  0.004447
   scf:    2     -931.726396     -931.726399     -931.726399  0.000144 -2.331076  0.007556
   scf:    3     -931.726401     -931.726400     -931.726400  0.000087 -2.332643  0.000475

SCF Convergence by DM+H criterion
max |DM_out - DM_in|         :     0.0000874678
max |H_out - H_in|      (eV) :     0.0004752807
SCF cycle converged after 3 iterations

Using DM_out to compute the final energy and forces
No. of atoms with KB's overlaping orbs in proc 0. Max # of overlaps:       4      41

siesta: E_KS(eV) =             -931.7264

siesta: Atomic forces (eV/Ang):
----------------------------------------
   Tot   -0.002225    0.023113    0.000000
----------------------------------------
   Max    0.898199
   Res    0.344679    sqrt( Sum f_i^2 / 3N )
----------------------------------------
   Max    0.035732    constrained

Stress-tensor-Voigt (kbar):       -0.65       -0.05       -0.00        0.01        0.00       -0.00
(Free)E + p*V (eV/cell)     -931.2325
Target enthalpy (eV/cell)     -931.7264

LUA/NEB running NEB image 3 / 5

Saving h2o_neb.DM to h2o_neb.DM.2
Restoring h2o_neb.DM.3 to h2o_neb.DM

                     ====================================
                        LUA coord. step =     99
                     ====================================

outcell: Unit cell vectors (Ang):
       15.000000    0.000000    0.000000
        0.000000   15.000000    0.000000
        0.000000    0.000000   15.000000

outcell: Cell vector modules (Ang)   :   15.000000   15.000000   15.000000
outcell: Cell angles (23,13,12) (deg):     90.0000     90.0000     90.0000
outcell: Cell volume (Ang**3)        :   3375.0000
<dSpData1D:S at geom step 99
  <sparsity:sparsity for geom step 99
    nrows_g=46 nrows=6 sparsity=.1087 nnzs=230, refcount: 7>
  <dData1D:(new from dSpData1D) n=230, refcount: 1>
refcount: 1>
new_DM -- step:   100
Initializing Density Matrix...

Attempting to read DM from file... Succeeded...
DM from file:
<dSpData2D:IO-DM: h2o_neb.DM
  <sparsity:IO-DM: h2o_neb.DM
    nrows_g=46 nrows=6 sparsity=.1087 nnzs=230, refcount: 1>
  <dData2D:(new from dSpData2D) n=230 m=1, refcount: 1>
refcount: 1>

No. of atoms with KB's overlaping orbs in proc 0. Max # of overlaps:       4      41
New grid distribution:   1
           1       1:   72    1:   36    1:   18
           2       1:   72    1:   36   19:   36
           3       1:   72    1:   36   37:   54
           4       1:   72    1:   36   55:   72
           5       1:   72   37:   72    1:   18
           6       1:   72   37:   72   19:   36
           7       1:   72   37:   72   37:   54
           8       1:   72   37:   72   55:   72

InitMesh: MESH =   144 x   144 x   144 =     2985984
InitMesh: (bp) =    72 x    72 x    72 =      373248
InitMesh: Mesh cutoff (required, used) =   250.000   254.709 Ry
ExtMesh (bp) on 0 =   124 x    88 x    70 =      763840
New grid distribution:   2
           1      10:   72   15:   72    1:   19
           2       9:   72    1:   14    1:   19
           3      10:   72    1:   15   20:   72
           4       1:    9    1:   15   20:   72
           5       1:    9   15:   72    1:   19
           6       1:    8    1:   14    1:   19
           7      16:   72   16:   72   20:   72
           8       1:   15   16:   72   20:   72
New grid distribution:   3
           1      14:   72    1:   17    1:   16
           2      14:   72    1:   18   17:   72
           3       1:   12   19:   72   17:   72
           4       1:   11   18:   72    1:   16
           5      12:   72   18:   72    1:   16
           6      13:   72   19:   72   17:   72
           7       1:   13    1:   18   17:   72
           8       1:   13    1:   17    1:   16
Setting up quadratic distribution...
ExtMesh (bp) on 0 =   115 x   110 x    71 =      898150
PhiOnMesh: Number of (b)points on node 0 =                69426
PhiOnMesh: nlist on node 0 =                34508

        iscf     Eharris(eV)        E_KS(eV)     FreeEng(eV)     dDmax    Ef(eV) dHmax(eV)
   scf:    1     -931.696641     -931.695792     -931.695792  0.000598 -2.077297  0.004046
   scf:    2     -931.695789     -931.695792     -931.695792  0.000135 -2.074964  0.007155
   scf:    3     -931.695793     -931.695793     -931.695793  0.000084 -2.076413  0.000654

SCF Convergence by DM+H criterion
max |DM_out - DM_in|         :     0.0000842154
max |H_out - H_in|      (eV) :     0.0006541751
SCF cycle converged after 3 iterations

Using DM_out to compute the final energy and forces
No. of atoms with KB's overlaping orbs in proc 0. Max # of overlaps:       4      41

siesta: E_KS(eV) =             -931.6958

siesta: Atomic forces (eV/Ang):
----------------------------------------
   Tot   -0.006178   -0.005439   -0.000000
----------------------------------------
   Max    0.823802
   Res    0.334876    sqrt( Sum f_i^2 / 3N )
----------------------------------------
   Max    0.036466    constrained

Stress-tensor-Voigt (kbar):       -0.58       -0.04       -0.00        0.05        0.00       -0.00
(Free)E + p*V (eV/cell)     -931.2590
Target enthalpy (eV/cell)     -931.6958

LUA/NEB running NEB image 4 / 5

Saving h2o_neb.DM to h2o_neb.DM.3
Restoring h2o_neb.DM.4 to h2o_neb.DM

                     ====================================
                        LUA coord. step =    100
                     ====================================

outcell: Unit cell vectors (Ang):
       15.000000    0.000000    0.000000
        0.000000   15.000000    0.000000
        0.000000    0.000000   15.000000

outcell: Cell vector modules (Ang)   :   15.000000   15.000000   15.000000
outcell: Cell angles (23,13,12) (deg):     90.0000     90.0000     90.0000
outcell: Cell volume (Ang**3)        :   3375.0000
<dSpData1D:S at geom step 100
  <sparsity:sparsity for geom step 100
    nrows_g=46 nrows=6 sparsity=.1016 nnzs=215, refcount: 7>
  <dData1D:(new from dSpData1D) n=215, refcount: 1>
refcount: 1>
new_DM -- step:   101
Initializing Density Matrix...

Attempting to read DM from file... Succeeded...
DM from file:
<dSpData2D:IO-DM: h2o_neb.DM
  <sparsity:IO-DM: h2o_neb.DM
    nrows_g=46 nrows=6 sparsity=.1016 nnzs=215, refcount: 1>
  <dData2D:(new from dSpData2D) n=215 m=1, refcount: 1>
refcount: 1>

No. of atoms with KB's overlaping orbs in proc 0. Max # of overlaps:       3      28
New grid distribution:   1
           1       1:   72    1:   36    1:   18
           2       1:   72    1:   36   19:   36
           3       1:   72    1:   36   37:   54
           4       1:   72    1:   36   55:   72
           5       1:   72   37:   72    1:   18
           6       1:   72   37:   72   19:   36
           7       1:   72   37:   72   37:   54
           8       1:   72   37:   72   55:   72

InitMesh: MESH =   144 x   144 x   144 =     2985984
InitMesh: (bp) =    72 x    72 x    72 =      373248
InitMesh: Mesh cutoff (required, used) =   250.000   254.709 Ry
ExtMesh (bp) on 0 =   124 x    88 x    70 =      763840
New grid distribution:   2
           1      11:   72   16:   72    1:   20
           2       9:   72    1:   15    1:   20
           3      10:   72    1:   16   21:   72
           4       1:    9    1:   16   21:   72
           5       1:   10   16:   72    1:   20
           6       1:    8    1:   15    1:   20
           7      17:   72   17:   72   21:   72
           8       1:   16   17:   72   21:   72
New grid distribution:   3
           1      14:   72    1:   18    1:   14
           2      14:   72    1:   18   15:   72
           3       1:   14   19:   72   15:   72
           4       1:   12   19:   72    1:   14
           5      13:   72   19:   72    1:   14
           6      15:   72   19:   72   15:   72
           7       1:   13    1:   18   15:   72
           8       1:   13    1:   18    1:   14
Setting up quadratic distribution...
ExtMesh (bp) on 0 =   114 x   109 x    72 =      894672
PhiOnMesh: Number of (b)points on node 0 =                70680
PhiOnMesh: nlist on node 0 =                32836

        iscf     Eharris(eV)        E_KS(eV)     FreeEng(eV)     dDmax    Ef(eV) dHmax(eV)
   scf:    1     -931.715975     -931.715651     -931.715651  0.000425 -2.068045  0.003728
   scf:    2     -931.715649     -931.715650     -931.715650  0.000121 -2.067529  0.006193
   scf:    3     -931.715652     -931.715651     -931.715651  0.000074 -2.067846  0.000372

SCF Convergence by DM+H criterion
max |DM_out - DM_in|         :     0.0000738916
max |H_out - H_in|      (eV) :     0.0003718258
SCF cycle converged after 3 iterations

Using DM_out to compute the final energy and forces
No. of atoms with KB's overlaping orbs in proc 0. Max # of overlaps:       3      28

siesta: E_KS(eV) =             -931.7157

siesta: Atomic forces (eV/Ang):
----------------------------------------
   Tot   -0.002434   -0.008464    0.000000
----------------------------------------
   Max    0.745667
   Res    0.335511    sqrt( Sum f_i^2 / 3N )
----------------------------------------
   Max    0.052415    constrained

Stress-tensor-Voigt (kbar):       -0.51        0.04       -0.00        0.07       -0.00        0.00
(Free)E + p*V (eV/cell)     -931.3887
Target enthalpy (eV/cell)     -931.7157

LUA/NEB running NEB image 5 / 5

Saving h2o_neb.DM to h2o_neb.DM.4
Restoring h2o_neb.DM.5 to h2o_neb.DM

                     ====================================
                        LUA coord. step =    101
                     ====================================

outcell: Unit cell vectors (Ang):
       15.000000    0.000000    0.000000
        0.000000   15.000000    0.000000
        0.000000    0.000000   15.000000

outcell: Cell vector modules (Ang)   :   15.000000   15.000000   15.000000
outcell: Cell angles (23,13,12) (deg):     90.0000     90.0000     90.0000
outcell: Cell volume (Ang**3)        :   3375.0000
<dSpData1D:S at geom step 101
  <sparsity:sparsity for geom step 101
    nrows_g=46 nrows=6 sparsity=.1007 nnzs=213, refcount: 7>
  <dData1D:(new from dSpData1D) n=213, refcount: 1>
refcount: 1>
new_DM -- step:   102
Initializing Density Matrix...

Attempting to read DM from file... Succeeded...
DM from file:
<dSpData2D:IO-DM: h2o_neb.DM
  <sparsity:IO-DM: h2o_neb.DM
    nrows_g=46 nrows=6 sparsity=.1007 nnzs=213, refcount: 1>
  <dData2D:(new from dSpData2D) n=213 m=1, refcount: 1>
refcount: 1>

No. of atoms with KB's overlaping orbs in proc 0. Max # of overlaps:       3      27
New grid distribution:   1
           1       1:   72    1:   36    1:   18
           2       1:   72    1:   36   19:   36
           3       1:   72    1:   36   37:   54
           4       1:   72    1:   36   55:   72
           5       1:   72   37:   72    1:   18
           6       1:   72   37:   72   19:   36
           7       1:   72   37:   72   37:   54
           8       1:   72   37:   72   55:   72

InitMesh: MESH =   144 x   144 x   144 =     2985984
InitMesh: (bp) =    72 x    72 x    72 =      373248
InitMesh: Mesh cutoff (required, used) =   250.000   254.709 Ry
ExtMesh (bp) on 0 =   124 x    88 x    70 =      763840
New grid distribution:   2
           1      11:   72   16:   72    1:   20
           2      10:   72    1:   15    1:   20
           3      11:   72    1:   16   21:   72
           4       1:   10    1:   16   21:   72
           5       1:   10   16:   72    1:   20
           6       1:    9    1:   15    1:   20
           7      22:   72   17:   72   21:   72
           8       1:   21   17:   72   21:   72
New grid distribution:   3
           1       1:   16   19:   72    1:   14
           2       1:   33   20:   72   15:   72
           3      15:   72    1:   19   15:   72
           4       1:   14    1:   19   15:   72
           5      17:   72   19:   72    1:   14
           6      34:   72   20:   72   15:   72
           7      15:   72    1:   18    1:   14
           8       1:   14    1:   18    1:   14
Setting up quadratic distribution...
ExtMesh (bp) on 0 =   114 x   109 x    72 =      894672
PhiOnMesh: Number of (b)points on node 0 =                70680
PhiOnMesh: nlist on node 0 =                35537

        iscf     Eharris(eV)        E_KS(eV)     FreeEng(eV)     dDmax    Ef(eV) dHmax(eV)
   scf:    1     -931.777287     -931.776931     -931.776931  0.000475 -2.070578  0.004889
   scf:    2     -931.776927     -931.776930     -931.776930  0.000158 -2.069991  0.007895
   scf:    3     -931.776932     -931.776932     -931.776932  0.000095 -2.070349  0.000557

SCF Convergence by DM+H criterion
max |DM_out - DM_in|         :     0.0000954928
max |H_out - H_in|      (eV) :     0.0005573062
SCF cycle converged after 3 iterations

Using DM_out to compute the final energy and forces
No. of atoms with KB's overlaping orbs in proc 0. Max # of overlaps:       3      27

siesta: E_KS(eV) =             -931.7769

siesta: Atomic forces (eV/Ang):
----------------------------------------
   Tot    0.002700   -0.001651   -0.000000
----------------------------------------
   Max    0.786502
   Res    0.340086    sqrt( Sum f_i^2 / 3N )
----------------------------------------
   Max    0.073019    constrained

Stress-tensor-Voigt (kbar):       -0.47        0.17       -0.00        0.03        0.00        0.00
(Free)E + p*V (eV/cell)     -931.5653
Target enthalpy (eV/cell)     -931.7769

NEB step
NEB: max F on image 1 =    0.01129, climbing = false
NEB: max F on image 2 =    0.03178, climbing = false
NEB: max F on image 3 =    0.03887, climbing = true
NEB: max F on image 4 =    0.01704, climbing = false
NEB: max F on image 5 =    0.01538, climbing = false

LUA/NEB complete

Saving h2o_neb.DM to h2o_neb.DM.5
Restoring h2o_neb.DM.1 to h2o_neb.DM

siesta: Program's energy decomposition (eV):
siesta: Ebs     =      -207.678131
siesta: Eions   =      1631.708957
siesta: Ena     =       350.203759
siesta: Ekin    =       705.605435
siesta: Enl     =      -125.599761
siesta: Eso     =         0.000000
siesta: Eldau   =         0.000000
siesta: DEna    =        -5.865600
siesta: DUscf   =         1.475424
siesta: DUext   =         0.000000
siesta: Exc     =      -225.887232
siesta: eta*DQ  =         0.000000
siesta: Emadel  =         0.000000
siesta: Emeta   =         0.000000
siesta: Emolmec =         0.000000
siesta: Ekinion =         0.000000
siesta: Eharris =      -931.776932
siesta: Etot    =      -931.776932
siesta: FreeEng =      -931.776932

siesta: Final energy (eV):
siesta:  Band Struct. =    -207.678131
siesta:       Kinetic =     705.605435
siesta:       Hartree =    1096.441787
siesta:       Eldau   =       0.000000
siesta:       Eso     =       0.000000
siesta:    Ext. field =       0.000000
siesta:   Exch.-corr. =    -225.887232
siesta:  Ion-electron =   -2810.202564
siesta:       Ion-ion =     302.265643
siesta:       Ekinion =       0.000000
siesta:         Total =    -931.776932
siesta:         Fermi =      -2.070349

siesta: Atomic forces (eV/Ang):
siesta:      1    0.025687   -0.786502    0.000000
siesta:      2    0.609710    0.448403   -0.000000
siesta:      3   -0.637068    0.608953   -0.000000
siesta:      4    0.056761   -0.318824    0.000000
siesta:      5   -0.073019   -0.003435   -0.000000
siesta:      6    0.020630    0.049753   -0.000000
siesta: ----------------------------------------
siesta:    Tot    0.002700   -0.001651   -0.000000

siesta: Constrained forces (eV/Ang):
siesta:      1    0.000000    0.000000    0.000000
siesta:      2    0.000000    0.000000    0.000000
siesta:      3    0.000000    0.000000    0.000000
siesta:      4    0.000000    0.000000    0.000000
siesta:      5   -0.073019   -0.003435   -0.000000
siesta:      6    0.020630    0.049753   -0.000000
siesta: ----------------------------------------
siesta:  Tot   -0.052389    0.046318   -0.000000

siesta: Stress tensor (static) (eV/Ang**3):
siesta:    -0.000293    0.000021   -0.000000
siesta:     0.000021    0.000106    0.000000
siesta:     0.000000    0.000000   -0.000001

siesta: Cell volume =       3375.000000 Ang**3

siesta: Pressure (static):
siesta:                Solid            Molecule  Units
siesta:           0.00000068         -0.00000003  Ry/Bohr**3
siesta:           0.00006272         -0.00000275  eV/Ang**3
siesta:           0.10048964         -0.00440974  kBar
(Free)E+ p_basis*V_orbitals  =        -930.606597
(Free)Eharris+ p_basis*V_orbitals  =        -930.606598

siesta: Electric dipole (a.u.)  =    0.266271    1.114298    0.000000
siesta: Electric dipole (Debye) =    0.676795    2.832265    0.000000
>> End of run:   4-JUL-2017   8:34:42
Job completed
