Siesta Version  : v4.1-b4-351
Architecture    : x86_64-linux-n-62-26-19
Compiler version: GNU Fortran (GCC) 9.3.0
Compiler flags  : mpifort -m64 -fPIC -O3 -march=native -ftree-vectorize -fexpensive-optimizatioons -funroll-loops -fprefetch-loop-arrays -fno-second-underscore  -flto
PP flags        : -I/dtu/sw/dcc/SL73/2020-aug/generic/build-tools/1.0/include -I/dtu/sw/dcc/SL773/2020-aug/generic/gcc/9.3.0/include -I/dtu/sw/dcc/SL73/2020-aug/generic/gcc/9.3.0/include -I/dtu/sw/dcc/SL73/2020-aug/XeonE5-2660v3/gnu/9.3.0/zlib/1.2.11/include -I/dtu/sw/dcc/SL73/2020-aug/generic/numactl/2.0.12/include -I/dtu/sw/dcc/SL73/2020-aug/XeonE5-2660v3/gnu/9.3.0/libxml2/2.9.10/include -I/dtu/sw/dcc/SL73/2020-aug/XeonE5-2660v3/gnu/9.3.0/hwloc/2.2.0/include -I/dtu/sw/dcc/SL73/2020-aug/XeonE5-2660v3/gnu/9.3.0/knem/1.1.4/include -I/dtu/sw/dcc/SL73/2020-aug/XeonE5-2660v3/gnu/9.3.0/ucx/1.8.1/include -I/dtu/sw/dcc/SL73/2020-aug/XeonE5-2660v3/gnu/9.3.0/openmpi/4.0.4/include -I/dtu/sw/dcc/SL73/2020-aug/XeonE5-2660v3/gnu/9.3.0/szip/2.1.1/include -I/dtu/sw/dcc/SL73/2020-aug/XeonE5-2660v3/gnu/9.3.0/hdf5/1.12.0/include -I/dtu/sw/dcc/SL73/2020-aug/XeonE5-2660v3/gnu/9.3.0/pnetcdf/1.12.1/include -I/dtu/sw/dcc/SL73/2020-aug/generic/gen-zlib/1.2.11/include -I/dtu/sw/dcc/SL73/2020-aug/generic/openssl/1.1.1/include -I/dtu/sw/dcc/SL73/2020-aug/generic/libssh2/1.8.2/include -I/dtu/sw/dcc/SL73/2020-aug/generic/curl/7.65.1/include -I/dtu/sw/dcc/SL73/2020-aug/XeonE5-2660v3/gnu/9.3.0/netcdf/4.7.4/include -I/dtu/sw/dcc/SL73/2020-aug/XeonE5-2660v3/gnu/9.3.0/flook/0.8.1/include -I/dtu/sw/dcc/SL73/2020-aug/XeonE5-2660v3/gnu/9.3.0/fftw/3.3.8/include -I/dtu/sw/dcc/SL73/2020-aug/XeonE5-2660v3/gnu/9.3.0/parmetis/4.0.3/include -I/dtu/sw/dcc/SL73/2020-aug/XeonE5-2660v3/gnu/9.3.0/scalapack/2.1.0/include -I/dtu/sw/dcc/SL73/2020-aug/XeonE5-2660v3/gnu/9.3.0/lapack/3.9.0/include -I/dtu/sw/dcc/SL73/2020-aug/XeonE5-2660v3/gnu/9.3.0/blis/0.7.0/include -I/dtu/sw/dcc/SL73/2020-aug/XeonE5-2660v3/gnu/9.3.0/scotch/6.0.9/include -I/dtu/sw/dcc/SL73/2020-aug/XeonE5-2660v3/gnu/9.3.0/mumps/5.3.3/include -I/dtu/sw/dcc/SL73/2020-aug/XeonE5-2660v3/gnu/9.3.0/elpa/2020.05.001/include -DSIESTA__ELPA -DMPI -DFC_HAVE_FLUSH -DFC_HAVE_ABORT -DCDF -DCDF4 -DSIESTA__FLOOK  -DNCDF -DNCDF_4 -DNCDF_PARALLEL -DTS_NOCHECKS -DSIESTA__METIS -DSIESTA__MUMPS -DSIESTA__MRRR -I/dtu/sw/dcc/SL73/2020-aug/XeonE5-2660v3/gnu/9.3.0/elpa/2020.05.001/include/elpa
Libraries       : libncdf.a libfdict.a -lnetcdff -lnetcdf -lpnetcdf -lhdf5_hl -lhdf5 -lz  -lzmuumps -lmumps_common -lesmumps -lscotch -lscotcherr -lpord -lparmetis -lmetis -lelpa -lscalapack -llapack -lblis  -L/dtu/sw/dcc/SL73/2020-aug/XeonE5-2660v3/gnu/9.3.0/flook/0.8.1/lib -Wl,-rpath=/dtu/sw/dcc/SL73/2020-aug/XeonE5-2660v3/gnu/9.3.0/flook/0.8.1/lib -lflookall -ldl  -flto -fuse-linker-plugin  -lmetis
PARALLEL version
NetCDF support
NetCDF-4 support
NetCDF-4 MPI-IO support
METIS ordering support
Lua support

* Running on 8 nodes in parallel
>> Start of run:  22-JAN-2021  23:10:40

                           ***********************       
                           *  WELCOME TO SIESTA  *       
                           ***********************       

reinit: Reading from ../h2o_op_broyden.fdf

reinit: -----------------------------------------------------------------------
reinit: System Name: Water molecule Broyden Optimization
reinit: -----------------------------------------------------------------------
reinit: System Label: h2o_op_broyden
reinit: -----------------------------------------------------------------------

initatom: Reading input for the pseudopotentials and atomic orbitals ----------
Species number:   1 Atomic number:    8 Label: O
Species number:   2 Atomic number:    1 Label: H

Ground state valence configuration:   2s02  2p04
Reading pseudopotential information in formatted form from O.psf

Valence configuration for pseudopotential generation:
2s( 2.00) rc: 1.14
2p( 4.00) rc: 1.14
3d( 0.00) rc: 1.14
4f( 0.00) rc: 1.14
Ground state valence configuration:   1s01
Reading pseudopotential information in formatted form from H.psf

Valence configuration for pseudopotential generation:
1s( 1.00) rc: 1.25
2p( 0.00) rc: 1.25
3d( 0.00) rc: 1.25
4f( 0.00) rc: 1.25
For O, standard SIESTA heuristics set lmxkb to 3
 (one more than the basis l, including polarization orbitals).
Use PS.lmax or PS.KBprojectors blocks to override.
For H, standard SIESTA heuristics set lmxkb to 2
 (one more than the basis l, including polarization orbitals).
Use PS.lmax or PS.KBprojectors blocks to override.

<basis_specs>
===============================================================================
O                    Z=   8    Mass=  16.000        Charge= 0.17977+309
Lmxo=1 Lmxkb= 3    BasisType=split      Semic=F
L=0  Nsemic=0  Cnfigmx=2
          i=1  nzeta=2  polorb=0  (2s)
            splnorm:   0.15000    
               vcte:    0.0000    
               rinn:    0.0000    
               qcoe:    0.0000    
               qyuk:    0.0000    
               qwid:   0.10000E-01
                rcs:    0.0000      0.0000    
            lambdas:    1.0000      1.0000    
L=1  Nsemic=0  Cnfigmx=2
          i=1  nzeta=2  polorb=1  (2p)
            splnorm:   0.15000    
               vcte:    0.0000    
               rinn:    0.0000    
               qcoe:    0.0000    
               qyuk:    0.0000    
               qwid:   0.10000E-01
                rcs:    0.0000      0.0000    
            lambdas:    1.0000      1.0000    
-------------------------------------------------------------------------------
L=0  Nkbl=1  erefs: 0.17977+309
L=1  Nkbl=1  erefs: 0.17977+309
L=2  Nkbl=1  erefs: 0.17977+309
L=3  Nkbl=1  erefs: 0.17977+309
===============================================================================
</basis_specs>

atom: Called for O                     (Z =   8)

read_vps: Pseudopotential generation method:
read_vps: ATM3      Troullier-Martins                       
Valence charge for ps generation:    6.00000

xc_check: Exchange-correlation functional:
xc_check: Ceperley-Alder
V l=0 = -2*Zval/r beyond r=  1.1278
V l=1 = -2*Zval/r beyond r=  1.1278
V l=2 = -2*Zval/r beyond r=  1.1278
V l=3 = -2*Zval/r beyond r=  1.1138
All V_l potentials equal beyond r=  1.1278
This should be close to max(r_c) in ps generation
All pots = -2*Zval/r beyond r=  1.1278

VLOCAL1: 99.0% of the norm of Vloc inside     34.126 Ry
VLOCAL1: 99.9% of the norm of Vloc inside     77.774 Ry
atom: Maximum radius for 4*pi*r*r*local-pseudopot. charge    1.37759
atom: Maximum radius for r*vlocal+2*Zval:    1.18566
GHOST: No ghost state for L =  0
GHOST: No ghost state for L =  1
GHOST: No ghost state for L =  2
GHOST: No ghost state for L =  3

KBgen: Kleinman-Bylander projectors: 
   l= 0   rc=  1.294105   el= -1.742414   Ekb=  9.135903   kbcos=  0.326910
   l= 1   rc=  1.294105   el= -0.676589   Ekb= -8.124878   kbcos= -0.395047
   l= 2   rc=  1.448233   el=  0.002386   Ekb= -2.039267   kbcos= -0.003484
   l= 3   rc=  1.561052   el=  0.003508   Ekb= -0.799141   kbcos= -0.000344

KBgen: Total number of  Kleinman-Bylander projectors:   16
atom: -------------------------------------------------------------------------

atom: SANKEY-TYPE ORBITALS:
atom: Selected multiple-zeta basis: split     

SPLIT: Orbitals with angular momentum L= 0

SPLIT: Basis orbitals for state 2s

SPLIT: PAO cut-off radius determined from an
SPLIT: energy shift=  0.020000 Ry

   izeta = 1
                 lambda =    1.000000
                     rc =    3.305093
                 energy =   -1.723766
                kinetic =    1.614911
    potential(screened) =   -3.338677
       potential(ionic) =  -11.304675

   izeta = 2
                 rmatch =    2.510382
              splitnorm =    0.150000
                 energy =   -1.471299
                kinetic =    2.446434
    potential(screened) =   -3.917732
       potential(ionic) =  -12.476133

SPLIT: Orbitals with angular momentum L= 1

SPLIT: Basis orbitals for state 2p

SPLIT: PAO cut-off radius determined from an
SPLIT: energy shift=  0.020000 Ry

   izeta = 1
                 lambda =    1.000000
                     rc =    3.937239
                 energy =   -0.658841
                kinetic =    5.005986
    potential(screened) =   -5.664827
       potential(ionic) =  -13.452360

   izeta = 2
                 rmatch =    2.541963
              splitnorm =    0.150000
                 energy =   -0.367441
                kinetic =    7.530509
    potential(screened) =   -7.897949
       potential(ionic) =  -16.611953

POLgen: Perturbative polarization orbital with L=  2

POLgen: Polarization orbital for state 2p

   izeta = 1
                     rc =    3.937239
                 energy =    2.398520
                kinetic =    4.716729
    potential(screened) =   -2.318209
       potential(ionic) =   -8.603170
atom: Total number of Sankey-type orbitals: 13

atm_pop: Valence configuration (for local Pseudopot. screening):
 2s( 2.00)                                                            
 2p( 4.00)                                                            
Vna: chval, zval:    6.00000   6.00000

Vna:  Cut-off radius for the neutral-atom potential:   3.937239

atom: _________________________________________________________________________

<basis_specs>
===============================================================================
H                    Z=   1    Mass=  1.0100        Charge= 0.17977+309
Lmxo=0 Lmxkb= 2    BasisType=split      Semic=F
L=0  Nsemic=0  Cnfigmx=1
          i=1  nzeta=2  polorb=1  (1s)
            splnorm:   0.15000    
               vcte:    0.0000    
               rinn:    0.0000    
               qcoe:    0.0000    
               qyuk:    0.0000    
               qwid:   0.10000E-01
                rcs:    0.0000      0.0000    
            lambdas:    1.0000      1.0000    
-------------------------------------------------------------------------------
L=0  Nkbl=1  erefs: 0.17977+309
L=1  Nkbl=1  erefs: 0.17977+309
L=2  Nkbl=1  erefs: 0.17977+309
===============================================================================
</basis_specs>

atom: Called for H                     (Z =   1)

read_vps: Pseudopotential generation method:
read_vps: ATM3      Troullier-Martins                       
Valence charge for ps generation:    1.00000

xc_check: Exchange-correlation functional:
xc_check: Ceperley-Alder
V l=0 = -2*Zval/r beyond r=  1.2343
V l=1 = -2*Zval/r beyond r=  1.2189
V l=2 = -2*Zval/r beyond r=  1.2189
All V_l potentials equal beyond r=  1.2343
This should be close to max(r_c) in ps generation
All pots = -2*Zval/r beyond r=  1.2343

VLOCAL1: 99.0% of the norm of Vloc inside     28.493 Ry
VLOCAL1: 99.9% of the norm of Vloc inside     64.935 Ry
atom: Maximum radius for 4*pi*r*r*local-pseudopot. charge    1.45251
atom: Maximum radius for r*vlocal+2*Zval:    1.21892
GHOST: No ghost state for L =  0
GHOST: No ghost state for L =  1
GHOST: No ghost state for L =  2

KBgen: Kleinman-Bylander projectors: 
   l= 0   rc=  1.364359   el= -0.467325   Ekb= -2.005361   kbcos= -0.336422
   l= 1   rc=  1.434438   el=  0.001430   Ekb= -0.501708   kbcos= -0.021697
   l= 2   rc=  1.470814   el=  0.002365   Ekb= -0.190555   kbcos= -0.002281

KBgen: Total number of  Kleinman-Bylander projectors:    9
atom: -------------------------------------------------------------------------

atom: SANKEY-TYPE ORBITALS:
atom: Selected multiple-zeta basis: split     

SPLIT: Orbitals with angular momentum L= 0

SPLIT: Basis orbitals for state 1s

SPLIT: PAO cut-off radius determined from an
SPLIT: energy shift=  0.020000 Ry

   izeta = 1
                 lambda =    1.000000
                     rc =    4.828263
                 energy =   -0.449375
                kinetic =    0.929372
    potential(screened) =   -1.378747
       potential(ionic) =   -1.915047

   izeta = 2
                 rmatch =    3.854947
              splitnorm =    0.150000
                 energy =   -0.336153
                kinetic =    1.505294
    potential(screened) =   -1.841447
       potential(ionic) =   -2.413582

POLgen: Perturbative polarization orbital with L=  1

POLgen: Polarization orbital for state 1s

   izeta = 1
                     rc =    4.828263
                 energy =    0.706972
                kinetic =    1.396397
    potential(screened) =   -0.689424
       potential(ionic) =   -1.169792
atom: Total number of Sankey-type orbitals:  5

atm_pop: Valence configuration (for local Pseudopot. screening):
 1s( 1.00)                                                            
Vna: chval, zval:    1.00000   1.00000

Vna:  Cut-off radius for the neutral-atom potential:   4.828263

atom: _________________________________________________________________________

prinput: Basis input ----------------------------------------------------------

PAO.BasisType split     

%block ChemicalSpeciesLabel
    1    8 O                       # Species index, atomic number, species label
    2    1 H                       # Species index, atomic number, species label
%endblock ChemicalSpeciesLabel

%block PAO.Basis                 # Define Basis set
O                     2                    # Species label, number of l-shells
 n=2   0   2                         # n, l, Nzeta 
   3.305      2.510   
   1.000      1.000   
 n=2   1   2 P   1                   # n, l, Nzeta, Polarization, NzetaPol
   3.937      2.542   
   1.000      1.000   
H                     1                    # Species label, number of l-shells
 n=1   0   2 P   1                   # n, l, Nzeta, Polarization, NzetaPol
   4.828      3.855   
   1.000      1.000   
%endblock PAO.Basis

prinput: ----------------------------------------------------------------------

Dumping basis to NetCDF file O.ion.nc
Dumping basis to NetCDF file H.ion.nc
coor:   Atomic-coordinates input format  =     Cartesian coordinates
coor:                                          (in Angstroms)

siesta: Atomic coordinates (Bohr) and species
siesta:      0.00000   0.00000   0.00000  1        1
siesta:      1.43052   1.10738   0.00000  2        2
siesta:     -1.43052   1.10738   0.00000  2        3

siesta: Automatic unit cell vectors (Ang):
siesta:    7.286412    0.000000    0.000000
siesta:    0.000000    5.746952    0.000000
siesta:    0.000000    0.000000    5.621012

siesta: System type = molecule  

initatomlists: Number of atoms, orbitals, and projectors:      3    23    34

siesta: ******************** Simulation parameters ****************************
siesta:
siesta: The following are some of the parameters of the simulation.
siesta: A complete list of the parameters used, including default values,
siesta: can be found in file out.fdf
siesta:
redata: Spin configuration                          = none
redata: Number of spin components                   = 1
redata: Time-Reversal Symmetry                      = T
redata: Spin spiral                                 = F
redata: Long output                                 =   F
redata: Number of Atomic Species                    =        2
redata: Charge density info will appear in .RHO file
redata: Write Mulliken Pop.                         = NO
redata: Matel table size (NRTAB)                    =     1024
redata: Mesh Cutoff                                 =    50.0000 Ry
redata: Net charge of the system                    =     0.0000 |e|
redata: Min. number of SCF Iter                     =        0
redata: Max. number of SCF Iter                     =     1000
redata: SCF convergence failure will abort job
redata: SCF mix quantity                            = Hamiltonian
redata: Mix DM or H after convergence               =   F
redata: Recompute H after scf cycle                 =   F
redata: Mix DM in first SCF step                    =   T
redata: Write Pulay info on disk                    =   F
redata: New DM Occupancy tolerance                  = 0.000000000001
redata: No kicks to SCF
redata: DM Mixing Weight for Kicks                  =     0.5000
redata: Require Harris convergence for SCF          =   F
redata: Harris energy tolerance for SCF             =     0.000100 eV
redata: Require DM convergence for SCF              =   T
redata: DM tolerance for SCF                        =     0.000100
redata: Require EDM convergence for SCF             =   F
redata: EDM tolerance for SCF                       =     0.001000 eV
redata: Require H convergence for SCF               =   T
redata: Hamiltonian tolerance for SCF               =     0.001000 eV
redata: Require (free) Energy convergence for SCF   =   F
redata: (free) Energy tolerance for SCF             =     0.000100 eV
redata: Using Saved Data (generic)                  =   F
redata: Use continuation files for DM               =   F
redata: Neglect nonoverlap interactions             =   F
redata: Method of Calculation                       = Diagonalization
redata: Electronic Temperature                      =   299.9869 K
redata: Fix the spin of the system                  =   F
redata: Dynamics option                             = Broyden coord. optimization
redata: Variable cell                               =   F
redata: Maximum number of optimization moves        =       40
redata: Force tolerance                             =     0.0100 eV/Ang
mix.SCF: Pulay mixing                            = Pulay
mix.SCF:    Variant                              = stable
mix.SCF:    History steps                        = 3
mix.SCF:    Linear mixing weight                 =     0.250000
mix.SCF:    Mixing weight                        =     0.250000
mix.SCF:    SVD condition                        = 0.1000E-07
redata: Save all siesta data in one NC              =   F
redata: ***********************************************************************

%block SCF.Mixers
  Pulay
%endblock SCF.Mixers

%block SCF.Mixer.Pulay
  # Mixing method
  method pulay
  variant stable

  # Mixing options
  weight 0.2500
  weight.linear 0.2500
  history 3
%endblock SCF.Mixer.Pulay

DM_history_depth set to one: no extrapolation allowed by default for geometry relaxation
Size of DM history Fstack: 1
Total number of electrons:     8.000000
Total ionic charge:     8.000000

* ProcessorY, Blocksize:    2   3


* Orbital distribution balance (max,min):     3     2

 Kpoints in:            1 . Kpoints trimmed:            1

siesta: k-grid: Number of k-points =     1
siesta: k-grid: Cutoff (effective) =     2.811 Ang
siesta: k-grid: Supercell and displacements
siesta: k-grid:    1   0   0      0.000
siesta: k-grid:    0   1   0      0.000
siesta: k-grid:    0   0   1      0.000

diag: Algorithm                                     = D&C
diag: Parallel over k                               =   F
diag: Use parallel 2D distribution                  =   T
diag: Parallel block-size                           = 3
diag: Parallel distribution                         =     2 x     4
diag: Used triangular part                          = Lower
diag: Absolute tolerance                            =  0.100E-15
diag: Orthogonalization factor                      =  0.100E-05
diag: Memory factor                                 =  1.0000


ts: **************************************************************
ts: Save H and S matrices                           =    F
ts: Save DM and EDM matrices                        =    F
ts: Only save the overlap matrix S                  =    F
ts: **************************************************************

************************ Begin: TS CHECKS AND WARNINGS ************************
************************ End: TS CHECKS AND WARNINGS **************************


                     ====================================
                        Begin Broyden opt. move =      0
                     ====================================

outcell: Unit cell vectors (Ang):
        7.286412    0.000000    0.000000
        0.000000    5.746952    0.000000
        0.000000    0.000000    5.621012

outcell: Cell vector modules (Ang)   :    7.286412    5.746952    5.621012
outcell: Cell angles (23,13,12) (deg):     90.0000     90.0000     90.0000
outcell: Cell volume (Ang**3)        :    235.3780
<dSpData1D:S at geom step 0
  <sparsity:sparsity for geom step 0
    nrows_g=23 nrows=3 sparsity=.1304 nnzs=69, refcount: 7>
  <dData1D:(new from dSpData1D) n=69, refcount: 1>
refcount: 1>
new_DM -- step:     1
Initializing Density Matrix...
DM filled with atomic data:
<dSpData2D:DM initialized from atoms
  <sparsity:sparsity for geom step 0
    nrows_g=23 nrows=3 sparsity=.1304 nnzs=69, refcount: 8>
  <dData2D:DM n=69 m=1, refcount: 1>
refcount: 1>
No. of atoms with KB's overlaping orbs in proc 0. Max # of overlaps:       3      23
New grid distribution:   1
           1       1:   16    1:    8    1:    3
           2       1:   16    1:    8    4:    6
           3       1:   16    1:    8    7:    9
           4       1:   16    1:    8   10:   12
           5       1:   16    9:   15    1:    3
           6       1:   16    9:   15    4:    6
           7       1:   16    9:   15    7:    9
           8       1:   16    9:   15   10:   12

InitMesh: MESH =    32 x    30 x    24 =       23040
InitMesh: (bp) =    16 x    15 x    12 =        2880
InitMesh: Mesh cutoff (required, used) =    50.000    50.384 Ry
ExtMesh (bp) on 0 =    40 x    36 x    27 =       38880
New grid distribution:   2
           1       5:   16    5:   15    1:    4
           2       5:   16    1:    4    1:    4
           3       5:   16    1:    4    5:   12
           4       1:    4    1:    4    5:   12
           5       1:    4    5:   15    1:    4
           6       1:    4    1:    4    1:    4
           7       5:   16    5:   15    5:   12
           8       1:    4    5:   15    5:   12
New grid distribution:   3
           1       1:    7    6:   15    1:    4
           2       8:   16    1:    5    1:    5
           3       1:    7    6:   15    5:   12
           4       8:   16    1:    5    6:   12
           5       8:   16    6:   15    1:    4
           6       1:    7    1:    5    6:   12
           7       8:   16    6:   15    5:   12
           8       1:    7    1:    5    1:    5
Setting up quadratic distribution...
ExtMesh (bp) on 0 =    36 x    39 x    28 =       39312
PhiOnMesh: Number of (b)points on node 0 =                  528
PhiOnMesh: nlist on node 0 =                 2325

stepf: Fermi-Dirac step function

siesta: Program's energy decomposition (eV):
siesta: Ebs     =       -86.527792
siesta: Eions   =       815.854478
siesta: Ena     =       175.155695
siesta: Ekin    =       370.751214
siesta: Enl     =       -67.181693
siesta: Eso     =         0.000000
siesta: Edftu   =         0.000000
siesta: DEna    =       -13.606153
siesta: DUscf   =         1.705518
siesta: DUext   =         0.000000
siesta: Exc     =      -116.213035
siesta: eta*DQ  =         0.000000
siesta: Emadel  =         0.000000
siesta: Emeta   =         0.000000
siesta: Emolmec =         0.000000
siesta: Ekinion =         0.000000
siesta: Eharris =      -467.643428
siesta: Etot    =      -465.242933
siesta: FreeEng =      -465.242933

        iscf     Eharris(eV)        E_KS(eV)     FreeEng(eV)     dDmax    Ef(eV) dHmax(eV)
   scf:    1     -467.643428     -465.242933     -465.242933  1.438866 -4.255292  6.304075
timer: Routine,Calls,Time,% = IterSCF        1       0.013   0.95
   scf:    2     -466.123353     -465.762348     -465.762348  0.046623 -3.205179  2.536058
   scf:    3     -465.848173     -465.834936     -465.834936  0.025062 -2.451504  0.346694
   scf:    4     -465.839768     -465.838743     -465.838743  0.032085 -2.220985  0.154125
   scf:    5     -465.839219     -465.839097     -465.839097  0.001539 -2.170061  0.035877
   scf:    6     -465.839163     -465.839132     -465.839132  0.000287 -2.166871  0.020825
   scf:    7     -465.839162     -465.839150     -465.839150  0.000343 -2.161606  0.002364
   scf:    8     -465.839150     -465.839150     -465.839150  0.000327 -2.159810  0.000452
   scf:    9     -465.839150     -465.839150     -465.839150  0.000010 -2.159692  0.000185

SCF Convergence by DM+H criterion
max |DM_out - DM_in|         :     0.0000102680
max |H_out - H_in|      (eV) :     0.0001846165
SCF cycle converged after 9 iterations

Using DM_out to compute the final energy and forces
No. of atoms with KB's overlaping orbs in proc 0. Max # of overlaps:       3      23

siesta: E_KS(eV) =             -465.8392

siesta: E_KS - E_eggbox =      -465.8392

siesta: Atomic forces (eV/Ang):
     1    0.000000   -0.459389    0.000000
     2    0.690518    0.257683   -0.000000
     3   -0.690518    0.257683   -0.000000
----------------------------------------
   Tot    0.000000    0.055978    0.000000
----------------------------------------
   Max    0.690518
   Res    0.379689    sqrt( Sum f_i^2 / 3N )
----------------------------------------
   Max    0.690518    constrained

Stress tensor Voigt[x,y,z,yz,xz,xy] (kbar):      -19.92       -3.51       22.43        0.00       -0.00       -0.00
(Free)E + p*V (eV/cell)     -465.7903
Target enthalpy (eV/cell)     -465.8392

Broyden_optim: max_history for broyden:   6
Broyden_optim: cycle on maxit: T
Broyden_optim: initial inverse jacobian:   1.0000

Broyden_optim: No of elements:      9

                     ====================================
                        Begin Broyden opt. move =      1
                     ====================================

outcell: Unit cell vectors (Ang):
        7.286412    0.000000    0.000000
        0.000000    5.746952    0.000000
        0.000000    0.000000    5.621012

outcell: Cell vector modules (Ang)   :    7.286412    5.746952    5.621012
outcell: Cell angles (23,13,12) (deg):     90.0000     90.0000     90.0000
outcell: Cell volume (Ang**3)        :    235.3780
<dSpData1D:S at geom step 1
  <sparsity:sparsity for geom step 1
    nrows_g=23 nrows=3 sparsity=.1304 nnzs=69, refcount: 7>
  <dData1D:(new from dSpData1D) n=69, refcount: 1>
refcount: 1>
new_DM -- step:     2
Re-using DM from previous geometries...
Number of DMs in history: 1
 DM extrapolation coefficients: 
1   1.00000
New DM after history re-use:
<dSpData2D:SpM extrapolated using coords
  <sparsity:sparsity for geom step 1
    nrows_g=23 nrows=3 sparsity=.1304 nnzs=69, refcount: 9>
  <dData2D:(temp array for extrapolation) n=69 m=1, refcount: 1>
refcount: 1>
Note: For starting DM, Qtot, Tr[D*S] =          8.00000000          7.97110731
No. of atoms with KB's overlaping orbs in proc 0. Max # of overlaps:       3      23
New grid distribution:   1
           1       1:   16    1:    8    1:    3
           2       1:   16    1:    8    4:    6
           3       1:   16    1:    8    7:    9
           4       1:   16    1:    8   10:   12
           5       1:   16    9:   15    1:    3
           6       1:   16    9:   15    4:    6
           7       1:   16    9:   15    7:    9
           8       1:   16    9:   15   10:   12

InitMesh: MESH =    32 x    30 x    24 =       23040
InitMesh: (bp) =    16 x    15 x    12 =        2880
InitMesh: Mesh cutoff (required, used) =    50.000    50.384 Ry
ExtMesh (bp) on 0 =    40 x    36 x    27 =       38880
New grid distribution:   2
           1       5:   16    5:   15    1:    4
           2       5:   16    1:    4    1:    4
           3       5:   16    1:    4    5:   12
           4       1:    4    1:    4    5:   12
           5       1:    4    5:   15    1:    4
           6       1:    4    1:    4    1:    4
           7       5:   16    5:   15    5:   12
           8       1:    4    5:   15    5:   12
New grid distribution:   3
           1       1:    7    6:   15    1:    4
           2       8:   16    1:    5    1:    5
           3       1:    7    6:   15    5:   12
           4       8:   16    1:    5    6:   12
           5       8:   16    6:   15    1:    4
           6       1:    7    1:    5    6:   12
           7       8:   16    6:   15    5:   12
           8       1:    7    1:    5    1:    5
Setting up quadratic distribution...
ExtMesh (bp) on 0 =    36 x    39 x    28 =       39312
PhiOnMesh: Number of (b)points on node 0 =                  528
PhiOnMesh: nlist on node 0 =                 2325

        iscf     Eharris(eV)        E_KS(eV)     FreeEng(eV)     dDmax    Ef(eV) dHmax(eV)
   scf:    1     -466.056234     -465.840905     -465.840905  0.038828 -2.103166  0.308335
   scf:    2     -465.825138     -465.837220     -465.837220  0.013340 -2.298039  0.506884
   scf:    3     -465.844587     -465.842606     -465.842606  0.008100 -2.176740  0.013431
   scf:    4     -465.842622     -465.842615     -465.842615  0.001236 -2.182776  0.001492
   scf:    5     -465.842615     -465.842615     -465.842615  0.000032 -2.183286  0.001051
   scf:    6     -465.842615     -465.842615     -465.842615  0.000020 -2.183406  0.000508

SCF Convergence by DM+H criterion
max |DM_out - DM_in|         :     0.0000202838
max |H_out - H_in|      (eV) :     0.0005075575
SCF cycle converged after 6 iterations

Using DM_out to compute the final energy and forces
No. of atoms with KB's overlaping orbs in proc 0. Max # of overlaps:       3      23

siesta: E_KS(eV) =             -465.8426

siesta: Atomic forces (eV/Ang):
     1    0.000000    1.169434    0.000000
     2   -0.152586   -0.319714    0.000000
     3    0.152586   -0.319714    0.000000
----------------------------------------
   Tot    0.000000    0.530006    0.000000
----------------------------------------
   Max    1.169434
   Res    0.424077    sqrt( Sum f_i^2 / 3N )
----------------------------------------
   Max    1.169434    constrained

Stress tensor Voigt[x,y,z,yz,xz,xy] (kbar):      -11.59        1.28       22.70       -0.00        0.00       -0.00
(Free)E + p*V (eV/cell)     -466.4493
Target enthalpy (eV/cell)     -465.8426

                     ====================================
                        Begin Broyden opt. move =      2
                     ====================================

outcell: Unit cell vectors (Ang):
        7.286412    0.000000    0.000000
        0.000000    5.746952    0.000000
        0.000000    0.000000    5.621012

outcell: Cell vector modules (Ang)   :    7.286412    5.746952    5.621012
outcell: Cell angles (23,13,12) (deg):     90.0000     90.0000     90.0000
outcell: Cell volume (Ang**3)        :    235.3780
<dSpData1D:S at geom step 2
  <sparsity:sparsity for geom step 2
    nrows_g=23 nrows=3 sparsity=.1304 nnzs=69, refcount: 7>
  <dData1D:(new from dSpData1D) n=69, refcount: 1>
refcount: 1>
new_DM -- step:     3
Re-using DM from previous geometries...
Number of DMs in history: 1
 DM extrapolation coefficients: 
1   1.00000
New DM after history re-use:
<dSpData2D:SpM extrapolated using coords
  <sparsity:sparsity for geom step 2
    nrows_g=23 nrows=3 sparsity=.1304 nnzs=69, refcount: 9>
  <dData2D:(temp array for extrapolation) n=69 m=1, refcount: 1>
refcount: 1>
Note: For starting DM, Qtot, Tr[D*S] =          8.00000000          8.01703034
No. of atoms with KB's overlaping orbs in proc 0. Max # of overlaps:       3      23
New grid distribution:   1
           1       1:   16    1:    8    1:    3
           2       1:   16    1:    8    4:    6
           3       1:   16    1:    8    7:    9
           4       1:   16    1:    8   10:   12
           5       1:   16    9:   15    1:    3
           6       1:   16    9:   15    4:    6
           7       1:   16    9:   15    7:    9
           8       1:   16    9:   15   10:   12

InitMesh: MESH =    32 x    30 x    24 =       23040
InitMesh: (bp) =    16 x    15 x    12 =        2880
InitMesh: Mesh cutoff (required, used) =    50.000    50.384 Ry
ExtMesh (bp) on 0 =    40 x    36 x    27 =       38880
New grid distribution:   2
           1       5:   16    5:   15    1:    4
           2       5:   16    1:    4    1:    4
           3       5:   16    1:    4    5:   12
           4       1:    4    1:    4    5:   12
           5       1:    4    5:   15    1:    4
           6       1:    4    1:    4    1:    4
           7       5:   16    5:   15    5:   12
           8       1:    4    5:   15    5:   12
New grid distribution:   3
           1       1:    7    6:   15    1:    4
           2       8:   16    1:    5    1:    5
           3       1:    7    6:   15    5:   12
           4       8:   16    1:    5    6:   12
           5       8:   16    6:   15    1:    4
           6       1:    7    1:    5    6:   12
           7       8:   16    6:   15    5:   12
           8       1:    7    1:    5    1:    5
Setting up quadratic distribution...
ExtMesh (bp) on 0 =    36 x    39 x    28 =       39312
PhiOnMesh: Number of (b)points on node 0 =                  528
PhiOnMesh: nlist on node 0 =                 2314

        iscf     Eharris(eV)        E_KS(eV)     FreeEng(eV)     dDmax    Ef(eV) dHmax(eV)
   scf:    1     -465.755191     -465.849168     -465.849168  0.021223 -2.172713  0.228134
   scf:    2     -465.841415     -465.847370     -465.847370  0.009224 -2.025118  0.361682
   scf:    3     -465.851009     -465.850026     -465.850026  0.005550 -2.115745  0.008238
   scf:    4     -465.850032     -465.850029     -465.850029  0.000487 -2.110931  0.001069
   scf:    5     -465.850029     -465.850029     -465.850029  0.000012 -2.110944  0.000677

SCF Convergence by DM+H criterion
max |DM_out - DM_in|         :     0.0000118567
max |H_out - H_in|      (eV) :     0.0006773822
SCF cycle converged after 5 iterations

Using DM_out to compute the final energy and forces
No. of atoms with KB's overlaping orbs in proc 0. Max # of overlaps:       3      23

siesta: E_KS(eV) =             -465.8500

siesta: Atomic forces (eV/Ang):
     1   -0.000000   -0.035462    0.000000
     2    0.159544   -0.008691    0.000000
     3   -0.159544   -0.008691    0.000000
----------------------------------------
   Tot   -0.000000   -0.052844    0.000000
----------------------------------------
   Max    0.159544
   Res    0.076243    sqrt( Sum f_i^2 / 3N )
----------------------------------------
   Max    0.159544    constrained

Stress tensor Voigt[x,y,z,yz,xz,xy] (kbar):      -14.86       -1.42       22.54        0.00        0.00       -0.00
(Free)E + p*V (eV/cell)     -466.1563
Target enthalpy (eV/cell)     -465.8500

                     ====================================
                        Begin Broyden opt. move =      3
                     ====================================

outcell: Unit cell vectors (Ang):
        7.286412    0.000000    0.000000
        0.000000    5.746952    0.000000
        0.000000    0.000000    5.621012

outcell: Cell vector modules (Ang)   :    7.286412    5.746952    5.621012
outcell: Cell angles (23,13,12) (deg):     90.0000     90.0000     90.0000
outcell: Cell volume (Ang**3)        :    235.3780
<dSpData1D:S at geom step 3
  <sparsity:sparsity for geom step 3
    nrows_g=23 nrows=3 sparsity=.1304 nnzs=69, refcount: 7>
  <dData1D:(new from dSpData1D) n=69, refcount: 1>
refcount: 1>
new_DM -- step:     4
Re-using DM from previous geometries...
Number of DMs in history: 1
 DM extrapolation coefficients: 
1   1.00000
New DM after history re-use:
<dSpData2D:SpM extrapolated using coords
  <sparsity:sparsity for geom step 3
    nrows_g=23 nrows=3 sparsity=.1304 nnzs=69, refcount: 9>
  <dData2D:(temp array for extrapolation) n=69 m=1, refcount: 1>
refcount: 1>
No. of atoms with KB's overlaping orbs in proc 0. Max # of overlaps:       3      23
New grid distribution:   1
           1       1:   16    1:    8    1:    3
           2       1:   16    1:    8    4:    6
           3       1:   16    1:    8    7:    9
           4       1:   16    1:    8   10:   12
           5       1:   16    9:   15    1:    3
           6       1:   16    9:   15    4:    6
           7       1:   16    9:   15    7:    9
           8       1:   16    9:   15   10:   12

InitMesh: MESH =    32 x    30 x    24 =       23040
InitMesh: (bp) =    16 x    15 x    12 =        2880
InitMesh: Mesh cutoff (required, used) =    50.000    50.384 Ry
ExtMesh (bp) on 0 =    40 x    36 x    27 =       38880
New grid distribution:   2
           1       5:   16    5:   15    1:    4
           2       5:   16    1:    4    1:    4
           3       5:   16    1:    4    5:   12
           4       1:    4    1:    4    5:   12
           5       1:    4    5:   15    1:    4
           6       1:    4    1:    4    1:    4
           7       5:   16    5:   15    5:   12
           8       1:    4    5:   15    5:   12
New grid distribution:   3
           1       1:    7    6:   15    1:    4
           2       8:   16    1:    5    1:    5
           3       1:    7    6:   15    5:   12
           4       8:   16    1:    5    6:   12
           5       8:   16    6:   15    1:    4
           6       1:    7    1:    5    6:   12
           7       8:   16    6:   15    5:   12
           8       1:    7    1:    5    1:    5
Setting up quadratic distribution...
ExtMesh (bp) on 0 =    36 x    39 x    28 =       39312
PhiOnMesh: Number of (b)points on node 0 =                  528
PhiOnMesh: nlist on node 0 =                 2306

        iscf     Eharris(eV)        E_KS(eV)     FreeEng(eV)     dDmax    Ef(eV) dHmax(eV)
   scf:    1     -465.877413     -465.850773     -465.850773  0.006343 -2.087079  0.012069
   scf:    2     -465.850842     -465.850839     -465.850839  0.000502 -2.082997  0.007148
   scf:    3     -465.850843     -465.850842     -465.850842  0.000134 -2.084575  0.001594
   scf:    4     -465.850842     -465.850842     -465.850842  0.000080 -2.085218  0.000074

SCF Convergence by DM+H criterion
max |DM_out - DM_in|         :     0.0000796890
max |H_out - H_in|      (eV) :     0.0000738619
SCF cycle converged after 4 iterations

Using DM_out to compute the final energy and forces
No. of atoms with KB's overlaping orbs in proc 0. Max # of overlaps:       3      23

siesta: E_KS(eV) =             -465.8508

siesta: Atomic forces (eV/Ang):
     1    0.000001   -0.026001    0.000000
     2    0.028985   -0.047256    0.000000
     3   -0.028985   -0.047255    0.000000
----------------------------------------
   Tot    0.000001   -0.120512    0.000000
----------------------------------------
   Max    0.047256
   Res    0.027533    sqrt( Sum f_i^2 / 3N )
----------------------------------------
   Max    0.047256    constrained

Stress tensor Voigt[x,y,z,yz,xz,xy] (kbar):      -13.62       -1.12       22.55       -0.00        0.00        0.00
(Free)E + p*V (eV/cell)     -466.2333
Target enthalpy (eV/cell)     -465.8508

                     ====================================
                        Begin Broyden opt. move =      4
                     ====================================

outcell: Unit cell vectors (Ang):
        7.286412    0.000000    0.000000
        0.000000    5.746952    0.000000
        0.000000    0.000000    5.621012

outcell: Cell vector modules (Ang)   :    7.286412    5.746952    5.621012
outcell: Cell angles (23,13,12) (deg):     90.0000     90.0000     90.0000
outcell: Cell volume (Ang**3)        :    235.3780
<dSpData1D:S at geom step 4
  <sparsity:sparsity for geom step 4
    nrows_g=23 nrows=3 sparsity=.1304 nnzs=69, refcount: 7>
  <dData1D:(new from dSpData1D) n=69, refcount: 1>
refcount: 1>
new_DM -- step:     5
Re-using DM from previous geometries...
Number of DMs in history: 1
 DM extrapolation coefficients: 
1   1.00000
New DM after history re-use:
<dSpData2D:SpM extrapolated using coords
  <sparsity:sparsity for geom step 4
    nrows_g=23 nrows=3 sparsity=.1304 nnzs=69, refcount: 9>
  <dData2D:(temp array for extrapolation) n=69 m=1, refcount: 1>
refcount: 1>
No. of atoms with KB's overlaping orbs in proc 0. Max # of overlaps:       3      23
New grid distribution:   1
           1       1:   16    1:    8    1:    3
           2       1:   16    1:    8    4:    6
           3       1:   16    1:    8    7:    9
           4       1:   16    1:    8   10:   12
           5       1:   16    9:   15    1:    3
           6       1:   16    9:   15    4:    6
           7       1:   16    9:   15    7:    9
           8       1:   16    9:   15   10:   12

InitMesh: MESH =    32 x    30 x    24 =       23040
InitMesh: (bp) =    16 x    15 x    12 =        2880
InitMesh: Mesh cutoff (required, used) =    50.000    50.384 Ry
ExtMesh (bp) on 0 =    40 x    36 x    27 =       38880
New grid distribution:   2
           1       5:   16    5:   15    1:    4
           2       5:   16    1:    4    1:    4
           3       5:   16    1:    4    5:   12
           4       1:    4    1:    4    5:   12
           5       1:    4    5:   15    1:    4
           6       1:    4    1:    4    1:    4
           7       5:   16    5:   15    5:   12
           8       1:    4    5:   15    5:   12
New grid distribution:   3
           1       1:    7    6:   15    1:    4
           2       8:   16    1:    5    1:    5
           3       1:    7    6:   15    5:   12
           4       8:   16    1:    5    6:   12
           5       8:   16    6:   15    1:    4
           6       1:    7    1:    5    6:   12
           7       8:   16    6:   15    5:   12
           8       1:    7    1:    5    1:    5
Setting up quadratic distribution...
ExtMesh (bp) on 0 =    36 x    39 x    28 =       39312
PhiOnMesh: Number of (b)points on node 0 =                  528
PhiOnMesh: nlist on node 0 =                 2313

        iscf     Eharris(eV)        E_KS(eV)     FreeEng(eV)     dDmax    Ef(eV) dHmax(eV)
   scf:    1     -465.870406     -465.850896     -465.850896  0.003061 -2.073242  0.017221
   scf:    2     -465.850865     -465.850889     -465.850889  0.000674 -2.082874  0.023024
   scf:    3     -465.850904     -465.850900     -465.850900  0.000389 -2.077098  0.001493
   scf:    4     -465.850900     -465.850900     -465.850900  0.000104 -2.077632  0.000182
   scf:    5     -465.850900     -465.850900     -465.850900  0.000002 -2.077657  0.000117

SCF Convergence by DM+H criterion
max |DM_out - DM_in|         :     0.0000015758
max |H_out - H_in|      (eV) :     0.0001169067
SCF cycle converged after 5 iterations

Using DM_out to compute the final energy and forces
No. of atoms with KB's overlaping orbs in proc 0. Max # of overlaps:       3      23

siesta: E_KS(eV) =             -465.8509

siesta: Atomic forces (eV/Ang):
     1   -0.000031    0.281375    0.000000
     2   -0.055803   -0.086996   -0.000000
     3    0.055815   -0.087004   -0.000000
----------------------------------------
   Tot   -0.000019    0.107375   -0.000000
----------------------------------------
   Max    0.281375
   Res    0.105693    sqrt( Sum f_i^2 / 3N )
----------------------------------------
   Max    0.281375    constrained

Stress tensor Voigt[x,y,z,yz,xz,xy] (kbar):      -12.80       -0.77       22.57        0.00        0.00       -0.00
(Free)E + p*V (eV/cell)     -466.2917
Target enthalpy (eV/cell)     -465.8509

                     ====================================
                        Begin Broyden opt. move =      5
                     ====================================

outcell: Unit cell vectors (Ang):
        7.286412    0.000000    0.000000
        0.000000    5.746952    0.000000
        0.000000    0.000000    5.621012

outcell: Cell vector modules (Ang)   :    7.286412    5.746952    5.621012
outcell: Cell angles (23,13,12) (deg):     90.0000     90.0000     90.0000
outcell: Cell volume (Ang**3)        :    235.3780
<dSpData1D:S at geom step 5
  <sparsity:sparsity for geom step 5
    nrows_g=23 nrows=3 sparsity=.1304 nnzs=69, refcount: 7>
  <dData1D:(new from dSpData1D) n=69, refcount: 1>
refcount: 1>
new_DM -- step:     6
Re-using DM from previous geometries...
Number of DMs in history: 1
 DM extrapolation coefficients: 
1   1.00000
New DM after history re-use:
<dSpData2D:SpM extrapolated using coords
  <sparsity:sparsity for geom step 5
    nrows_g=23 nrows=3 sparsity=.1304 nnzs=69, refcount: 9>
  <dData2D:(temp array for extrapolation) n=69 m=1, refcount: 1>
refcount: 1>
No. of atoms with KB's overlaping orbs in proc 0. Max # of overlaps:       3      23
New grid distribution:   1
           1       1:   16    1:    8    1:    3
           2       1:   16    1:    8    4:    6
           3       1:   16    1:    8    7:    9
           4       1:   16    1:    8   10:   12
           5       1:   16    9:   15    1:    3
           6       1:   16    9:   15    4:    6
           7       1:   16    9:   15    7:    9
           8       1:   16    9:   15   10:   12

InitMesh: MESH =    32 x    30 x    24 =       23040
InitMesh: (bp) =    16 x    15 x    12 =        2880
InitMesh: Mesh cutoff (required, used) =    50.000    50.384 Ry
ExtMesh (bp) on 0 =    40 x    36 x    27 =       38880
New grid distribution:   2
           1       5:   16    5:   15    1:    4
           2       5:   16    1:    4    1:    4
           3       5:   16    1:    4    5:   12
           4       1:    4    1:    4    5:   12
           5       1:    4    5:   15    1:    4
           6       1:    4    1:    4    1:    4
           7       5:   16    5:   15    5:   12
           8       1:    4    5:   15    5:   12
New grid distribution:   3
           1       1:    7    6:   15    1:    4
           2       8:   16    1:    5    1:    5
           3       1:    7    6:   15    5:   12
           4       8:   16    1:    5    6:   12
           5       8:   16    6:   15    1:    4
           6       1:    7    1:    5    6:   12
           7       8:   16    6:   15    5:   12
           8       1:    7    1:    5    1:    5
Setting up quadratic distribution...
ExtMesh (bp) on 0 =    36 x    39 x    28 =       39312
PhiOnMesh: Number of (b)points on node 0 =                  528
PhiOnMesh: nlist on node 0 =                 2309

        iscf     Eharris(eV)        E_KS(eV)     FreeEng(eV)     dDmax    Ef(eV) dHmax(eV)
   scf:    1     -465.831273     -465.851283     -465.851283  0.005486 -2.069243  0.070285
   scf:    2     -465.850596     -465.851125     -465.851125  0.002795 -2.024195  0.108810
   scf:    3     -465.851450     -465.851362     -465.851362  0.001688 -2.051800  0.002781
   scf:    4     -465.851363     -465.851363     -465.851363  0.000126 -2.050467  0.000451
   scf:    5     -465.851363     -465.851363     -465.851363  0.000005 -2.050464  0.000316

SCF Convergence by DM+H criterion
max |DM_out - DM_in|         :     0.0000054818
max |H_out - H_in|      (eV) :     0.0003155932
SCF cycle converged after 5 iterations

Using DM_out to compute the final energy and forces
No. of atoms with KB's overlaping orbs in proc 0. Max # of overlaps:       3      23

siesta: E_KS(eV) =             -465.8514

siesta: Atomic forces (eV/Ang):
     1    0.000133    0.000734    0.000000
     2   -0.001659   -0.004586   -0.000001
     3    0.001601   -0.004544   -0.000000
----------------------------------------
   Tot    0.000076   -0.008396   -0.000001
----------------------------------------
   Max    0.004586
   Res    0.002299    sqrt( Sum f_i^2 / 3N )
----------------------------------------
   Max    0.004586    constrained

Stress tensor Voigt[x,y,z,yz,xz,xy] (kbar):      -13.41       -1.43       22.53        0.00        0.00        0.00
(Free)E + p*V (eV/cell)     -466.2279
Target enthalpy (eV/cell)     -465.8514

outcoor: Relaxed atomic coordinates (Ang):                  
   -0.00000066    0.00082758    0.00000002   1       1  O
    0.77741353    0.57985655   -0.00000000   2       2  H
   -0.77741324    0.57985639   -0.00000000   2       3  H

siesta: Program's energy decomposition (eV):
siesta: Ebs     =      -103.934226
siesta: Eions   =       815.854478
siesta: Ena     =       175.070605
siesta: Ekin    =       349.719732
siesta: Enl     =       -61.529254
siesta: Eso     =         0.000000
siesta: Edftu   =         0.000000
siesta: DEna    =        -1.354837
siesta: DUscf   =         0.730222
siesta: DUext   =         0.000000
siesta: Exc     =      -112.633354
siesta: eta*DQ  =         0.000000
siesta: Emadel  =         0.000000
siesta: Emeta   =         0.000000
siesta: Emolmec =         0.000000
siesta: Ekinion =         0.000000
siesta: Eharris =      -465.851363
siesta: Etot    =      -465.851363
siesta: FreeEng =      -465.851363

siesta: Final energy (eV):
siesta:  Band Struct. =    -103.934226
siesta:       Kinetic =     349.719732
siesta:       Hartree =     380.866762
siesta:       Edftu   =       0.000000
siesta:       Eso     =       0.000000
siesta:    Ext. field =       0.000000
siesta:   Exch.-corr. =    -112.633354
siesta:  Ion-electron =   -1067.814487
siesta:       Ion-ion =     -15.990016
siesta:       Ekinion =       0.000000
siesta:         Total =    -465.851363
siesta:         Fermi =      -2.050464

siesta: Stress tensor (static) (eV/Ang**3):
siesta:    -0.008369    0.000000    0.000000
siesta:     0.000000   -0.000891   -0.000000
siesta:     0.000000    0.000000    0.014059

siesta: Cell volume =        235.378012 Ang**3

siesta: Pressure (static):
siesta:                Solid            Molecule  Units
siesta:          -0.00001742         -0.00001735  Ry/Bohr**3
siesta:          -0.00159973         -0.00159324  eV/Ang**3
siesta:          -2.56307472         -2.55268400  kBar
(Free)E+ p_basis*V_orbitals  =        -465.266196
(Free)Eharris+ p_basis*V_orbitals  =        -465.266196

siesta: Electric dipole (a.u.)  =    0.000001    0.550343    0.000000
siesta: Electric dipole (Debye) =    0.000002    1.398832    0.000000

cite: Please see "h2o_op_broyden.bib" for an exhaustive BiBTeX file.
cite: Please clearly indicate Siesta version in published work: v4.1-b4-351
cite: This calculation has made use of the following articles
cite: which are encouraged to be cited in a published work.
        Primary SIESTA paper
          DOI: www.doi.org/10.1088/0953-8984/14/11/302

>> End of run:  22-JAN-2021  23:10:42
Job completed
