Siesta Version: siesta-3.2
Architecture  : SIESTA_ARCH
Compiler flags: FFLAGS
PARALLEL version
NetCDF support

* Running on    4 nodes in parallel
>> Start of run:  24-MAR-2013  18:28:27

                           ***********************       
                           *  WELCOME TO SIESTA  *       
                           ***********************       

reinit: Reading from standard input
************************** Dump of input data file ****************************
SystemName h2oZ
SystemLabel h2oZ
NumberOfSpecies 2
NumberOfAtoms   3
%block ChemicalSpeciesLabel
1    8 O
2    1 H
%endblock ChemicalSpeciesLabel
AtomicCoordinatesFormat NotScaledCartesianAng
ZM.ForceTolLength 0.04 eV/Ang
ZM.ForceTolAngle 0.0001 eV/deg
ZM.MaxDisplLenght 0.1 Ang
ZM.MaxDisplAngle 20.0 deg
%block Zmatrix
molecule_cartesian
  1 0 0 0   0.0 0.0 0.0 0 0 0
  2 1 0 0   HO1 90.0 37.743919 1 0 0
  2 1 2 0   HO2 HOH 90.0 1 1 0
variables
    HO1 0.956997
    HO2 0.956997
    HOH 104.0
%endblock Zmatrix
ZM.UnitsLength Ang
ZM.UnitsAngle deg
xc.functional GGA
xc.authors PBE
MD.TypeOfRun CG
MD.NumCGsteps 200
MeshCutoff 120 Ry
PAO.EnergyShift 0.01 Ry
DM.NumberPulay 5
DM.MixingWeight 0.3
************************** End of input data file *****************************

reinit: -----------------------------------------------------------------------
reinit: System Name: h2oZ
reinit: -----------------------------------------------------------------------
reinit: System Label: h2oZ                                                        
reinit: -----------------------------------------------------------------------

initatom: Reading input for the pseudopotentials and atomic orbitals ----------
 Species number:            1  Label: O Atomic number:           8
 Species number:            2  Label: H Atomic number:           1
Ground state valence configuration:   2s02  2p04
Reading pseudopotential information in formatted form from O.psf

Valence configuration for pseudopotential generation:
2s( 2.00) rc: 1.14
2p( 4.00) rc: 1.14
3d( 0.00) rc: 1.14
4f( 0.00) rc: 1.14
Ground state valence configuration:   1s01
Reading pseudopotential information in formatted form from H.psf

Valence configuration for pseudopotential generation:
1s( 1.00) rc: 1.25
2p( 0.00) rc: 1.25
3d( 0.00) rc: 1.25
4f( 0.00) rc: 1.25
For O, standard SIESTA heuristics set lmxkb to 3
 (one more than the basis l, including polarization orbitals).
Use PS.lmax or PS.KBprojectors blocks to override.
For H, standard SIESTA heuristics set lmxkb to 2
 (one more than the basis l, including polarization orbitals).
Use PS.lmax or PS.KBprojectors blocks to override.

<basis_specs>
===============================================================================
O                    Z=   8    Mass=  16.000        Charge= 0.17977+309
Lmxo=1 Lmxkb= 3    BasisType=split      Semic=F
L=0  Nsemic=0  Cnfigmx=2
          n=1  nzeta=2  polorb=0
            splnorm:   0.15000    
               vcte:    0.0000    
               rinn:    0.0000    
                rcs:    0.0000      0.0000    
            lambdas:    1.0000      1.0000    
L=1  Nsemic=0  Cnfigmx=2
          n=1  nzeta=2  polorb=1
            splnorm:   0.15000    
               vcte:    0.0000    
               rinn:    0.0000    
                rcs:    0.0000      0.0000    
            lambdas:    1.0000      1.0000    
-------------------------------------------------------------------------------
L=0  Nkbl=1  erefs: 0.17977+309
L=1  Nkbl=1  erefs: 0.17977+309
L=2  Nkbl=1  erefs: 0.17977+309
L=3  Nkbl=1  erefs: 0.17977+309
===============================================================================
</basis_specs>

atom: Called for O                     (Z =   8)

read_vps: Pseudopotential generation method:
read_vps: ATM3      Troullier-Martins                       
Total valence charge:    6.00000

xc_check: Exchange-correlation functional:
xc_check: GGA Perdew, Burke & Ernzerhof 1996
xc_check: WARNING: Pseudopotential generated with Ceperley-Alder functional
V l=0 = -2*Zval/r beyond r=  1.1278
V l=1 = -2*Zval/r beyond r=  1.1278
V l=2 = -2*Zval/r beyond r=  1.1278
V l=3 = -2*Zval/r beyond r=  1.1138
All V_l potentials equal beyond r=  1.1278
This should be close to max(r_c) in ps generation
All pots = -2*Zval/r beyond r=  1.1278

VLOCAL1: 99.0% of the norm of Vloc inside     34.126 Ry
VLOCAL1: 99.9% of the norm of Vloc inside     77.774 Ry
atom: Maximum radius for 4*pi*r*r*local-pseudopot. charge    1.37759
atom: Maximum radius for r*vlocal+2*Zval:    1.18566
GHOST: No ghost state for L =  0
GHOST: No ghost state for L =  1
GHOST: No ghost state for L =  2
GHOST: No ghost state for L =  3

KBgen: Kleinman-Bylander projectors: 
   l= 0   rc=  1.294105   el= -1.764717   Ekb=  9.120606   kbcos=  0.329038
   l= 1   rc=  1.294105   el= -0.698441   Ekb= -8.119783   kbcos= -0.400859
   l= 2   rc=  1.448233   el=  0.002031   Ekb= -2.039067   kbcos= -0.003490
   l= 3   rc=  1.561052   el=  0.003153   Ekb= -0.799361   kbcos= -0.000345

KBgen: Total number of  Kleinman-Bylander projectors:   16
atom: -------------------------------------------------------------------------

atom: SANKEY-TYPE ORBITALS:
atom: Selected multiple-zeta basis: split     

SPLIT: Orbitals with angular momentum L= 0

SPLIT: Basis orbitals for state 2s

SPLIT: PAO cut-off radius determined from an
SPLIT: energy shift=  0.010000 Ry

   izeta = 1
                 lambda =    1.000000
                     rc =    3.562532
                 energy =   -1.755511
                kinetic =    1.600463
    potential(screened) =   -3.355974
       potential(ionic) =  -11.286134

   izeta = 2
                 rmatch =    2.510382
              splitnorm =    0.150000
                 energy =   -1.503288
                kinetic =    2.454016
    potential(screened) =   -3.957304
       potential(ionic) =  -12.483069

SPLIT: Orbitals with angular momentum L= 1

SPLIT: Basis orbitals for state 2p

SPLIT: PAO cut-off radius determined from an
SPLIT: energy shift=  0.010000 Ry

   izeta = 1
                 lambda =    1.000000
                     rc =    4.243912
                 energy =   -0.688662
                kinetic =    5.026374
    potential(screened) =   -5.715036
       potential(ionic) =  -13.477958

   izeta = 2
                 rmatch =    2.573941
              splitnorm =    0.150000
                 energy =   -0.419104
                kinetic =    7.468683
    potential(screened) =   -7.887787
       potential(ionic) =  -16.547632

POLgen: Perturbative polarization orbital with L=  2

POLgen: Polarization orbital for state 2p

   izeta = 1
                     rc =    4.243912
                 energy =    2.313152
                kinetic =    4.581177
    potential(screened) =   -2.268025
       potential(ionic) =   -8.473102
atom: Total number of Sankey-type orbitals: 13

atm_pop: Valence configuration (for local Pseudopot. screening):
 2s( 2.00)                                                            
 2p( 4.00)                                                            
Vna: chval, zval:    6.00000   6.00000

Vna:  Cut-off radius for the neutral-atom potential:   4.243912

atom: _________________________________________________________________________

<basis_specs>
===============================================================================
H                    Z=   1    Mass=  1.0100        Charge= 0.17977+309
Lmxo=0 Lmxkb= 2    BasisType=split      Semic=F
L=0  Nsemic=0  Cnfigmx=1
          n=1  nzeta=2  polorb=1
            splnorm:   0.15000    
               vcte:    0.0000    
               rinn:    0.0000    
                rcs:    0.0000      0.0000    
            lambdas:    1.0000      1.0000    
-------------------------------------------------------------------------------
L=0  Nkbl=1  erefs: 0.17977+309
L=1  Nkbl=1  erefs: 0.17977+309
L=2  Nkbl=1  erefs: 0.17977+309
===============================================================================
</basis_specs>

atom: Called for H                     (Z =   1)

read_vps: Pseudopotential generation method:
read_vps: ATM3      Troullier-Martins                       
Total valence charge:    1.00000

xc_check: Exchange-correlation functional:
xc_check: GGA Perdew, Burke & Ernzerhof 1996
xc_check: WARNING: Pseudopotential generated with Ceperley-Alder functional
V l=0 = -2*Zval/r beyond r=  1.2343
V l=1 = -2*Zval/r beyond r=  1.2189
V l=2 = -2*Zval/r beyond r=  1.2189
All V_l potentials equal beyond r=  1.2343
This should be close to max(r_c) in ps generation
All pots = -2*Zval/r beyond r=  1.2343

VLOCAL1: 99.0% of the norm of Vloc inside     28.493 Ry
VLOCAL1: 99.9% of the norm of Vloc inside     64.935 Ry
atom: Maximum radius for 4*pi*r*r*local-pseudopot. charge    1.45251
atom: Maximum radius for r*vlocal+2*Zval:    1.21892
GHOST: No ghost state for L =  0
GHOST: No ghost state for L =  1
GHOST: No ghost state for L =  2

KBgen: Kleinman-Bylander projectors: 
   l= 0   rc=  1.364359   el= -0.488086   Ekb= -2.002077   kbcos= -0.347561
   l= 1   rc=  1.434438   el=  0.001075   Ekb= -0.501617   kbcos= -0.021754
   l= 2   rc=  1.470814   el=  0.002010   Ekb= -0.190607   kbcos= -0.002284

KBgen: Total number of  Kleinman-Bylander projectors:    9
atom: -------------------------------------------------------------------------

atom: SANKEY-TYPE ORBITALS:
atom: Selected multiple-zeta basis: split     

SPLIT: Orbitals with angular momentum L= 0

SPLIT: Basis orbitals for state 1s

SPLIT: PAO cut-off radius determined from an
SPLIT: energy shift=  0.010000 Ry

   izeta = 1
                 lambda =    1.000000
                     rc =    5.204501
                 energy =   -0.478113
                kinetic =    0.940144
    potential(screened) =   -1.418257
       potential(ionic) =   -1.931985

   izeta = 2
                 rmatch =    3.903467
              splitnorm =    0.150000
                 energy =   -0.372060
                kinetic =    1.517336
    potential(screened) =   -1.889395
       potential(ionic) =   -2.425474

POLgen: Perturbative polarization orbital with L=  1

POLgen: Polarization orbital for state 1s

   izeta = 1
                     rc =    5.204501
                 energy =    0.663382
                kinetic =    1.340502
    potential(screened) =   -0.677120
       potential(ionic) =   -1.151756
atom: Total number of Sankey-type orbitals:  5

atm_pop: Valence configuration (for local Pseudopot. screening):
 1s( 1.00)                                                            
Vna: chval, zval:    1.00000   1.00000

Vna:  Cut-off radius for the neutral-atom potential:   5.204501

atom: _________________________________________________________________________

prinput: Basis input ----------------------------------------------------------

PAO.BasisType split     

%block ChemicalSpeciesLabel
    1    8 O                       # Species index, atomic number, species label
    2    1 H                       # Species index, atomic number, species label
%endblock ChemicalSpeciesLabel

%block PAO.Basis                 # Define Basis set
O                     2                    # Species label, number of l-shells
 n=2   0   2                         # n, l, Nzeta 
   3.563      2.510   
   1.000      1.000   
 n=2   1   2 P   1                   # n, l, Nzeta, Polarization, NzetaPol
   4.244      2.574   
   1.000      1.000   
H                     1                    # Species label, number of l-shells
 n=1   0   2 P   1                   # n, l, Nzeta, Polarization, NzetaPol
   5.205      3.903   
   1.000      1.000   
%endblock PAO.Basis

prinput: ----------------------------------------------------------------------

Dumping basis to NetCDF file O.ion.nc
Dumping basis to NetCDF file H.ion.nc
coor:   Atomic-coordinates input format  =     Cartesian coordinates
coor:                                          (in Angstroms)
read_Zmatrix: Length units: Ang       
read_Zmatrix: Angle  units: deg       
read_Zmatrix: Force tolerances:
read_Zmatrix:    for lengths =     0.001556 Ry/Bohr
read_Zmatrix:    for angles  =     0.000421 Ry/rad

read_Zmatrix: Maximum displacements:
read_Zmatrix:    for lengths =     0.200000 Bohr
read_Zmatrix:    for angles  =     0.349066 rad
%block Zmatrix
molecule_cartesian
  1 0 0 0   0.0 0.0 0.0 0 0 0
  2 1 0 0   HO1 90.0 37.743919 1 0 0
  2 1 2 0   HO2 HOH 90.0 1 1 0
variables
    HO1 0.956997
    HO2 0.956997
    HOH 104.0
%endblock Zmatrix

zmatrix: Z-matrix coordinates: (Ang ; deg )
zmatrix: (Fractional coordinates have been converted to cartesian)
molecule    1 (     3 atoms)
      0.00000000      0.00000000      0.00000000
      0.95699700     90.00000000     37.74391900
      0.95699700    104.00000000     90.00000000


Z-matrix Symbol Section -------
Variables
 ho1         0.95699699999999988     
 ho2         0.95699699999999988     
 hoh          104.00000000000014     
Constants
------------ End of Z-matrix Information


siesta: Atomic coordinates (Bohr) and species
siesta:      0.00000   0.00000   0.00000  1        1
siesta:      1.43005   1.10702  -0.00000  2        2
siesta:     -1.42010   1.11976  -0.00000  2        3

siesta: Automatic unit cell vectors (Ang):
siesta:    7.718081    0.000000    0.000000
siesta:    0.000000    6.151677    0.000000
siesta:    0.000000    0.000000    6.059025

siesta: System type = molecule  

initatomlists: Number of atoms, orbitals, and projectors:      3    23    34

siesta: ******************** Simulation parameters ****************************
siesta:
siesta: The following are some of the parameters of the simulation.
siesta: A complete list of the parameters used, including default values,
siesta: can be found in file out.fdf
siesta:
redata: Non-Collinear-spin run           =     F
redata: SpinPolarized (Up/Down) run      =     F
redata: Number of spin components        =     1
redata: Long output                      =     F
redata: Number of Atomic Species         =        2
redata: Charge density info will appear in .RHO file
redata: Write Mulliken Pop.              =     NO
redata: Mesh Cutoff                      =   120.0000  Ry
redata: Net charge of the system         =     0.0000 |e|
redata: Max. number of SCF Iter          =       50
redata: Performing Pulay mixing using    =     5 iterations
redata: Mix DM in first SCF step ?       =     F
redata: Write Pulay info on disk?        =     F
redata: Discard 1st Pulay DM after  kick =     F
redata: New DM Mixing Weight             =     0.3000
redata: New DM Occupancy tolerance       = 0.000000000001
redata: No kicks to SCF
redata: DM Mixing Weight for Kicks       =     0.5000
redata: DM Tolerance for SCF             =     0.000100
redata: Require Energy convergence for SCF =     F
redata: DM Energy tolerance for SCF      =     0.000100 eV
redata: Require Harris convergence for SCF =     F
redata: DM Harris energy tolerance for SCF =     0.000100 eV
redata: Using Saved Data (generic)   =     F
redata: Use continuation files for DM    =     F
redata: Neglect nonoverlap interactions  =     F
redata: Method of Calculation            =     Diagonalization
redata: Divide and Conquer               =     T
redata: Electronic Temperature           =     0.0019  Ry
redata: Fix the spin of the system       =     F
redata: Dynamics option                  =     CG coord. optimization
redata: Variable cell                    =     F
redata: Use continuation files for CG    =     F
redata: Max atomic displ per move        =     0.2000  Bohr
redata: Maximum number of CG moves       =      200
redata: Force tolerance                  =     0.0016  Ry/Bohr
redata: ***********************************************************************
Total number of electrons:     8.000000
Total ionic charge:     8.000000

* ProcessorY, Blocksize:    2   6

 Kpoints in:            1 . Kpoints trimmed:            1

siesta: k-grid: Number of k-points =     1
siesta: k-grid: Cutoff (effective) =     3.030 Ang
siesta: k-grid: Supercell and displacements
siesta: k-grid:    1   0   0      0.000
siesta: k-grid:    0   1   0      0.000
siesta: k-grid:    0   0   1      0.000

* Maximum dynamic memory allocated =     2 MB

siesta:                 ==============================
                            Begin CG move =      0

zmatrix: Z-matrix coordinates: (Ang ; deg )
zmatrix: (Fractional coordinates have been converted to cartesian)
molecule    1 (     3 atoms)
      0.00000000      0.00000000      0.00000000
      0.95699700     90.00000000     37.74391900
      0.95699700    104.00000000     90.00000000


Z-matrix Symbol Section -------
Variables
 ho1         0.95699699999999988     
 ho2         0.95699699999999988     
 hoh          104.00000000000014     
Constants
------------ End of Z-matrix Information

                        ==============================

outcell: Unit cell vectors (Ang):
        7.718081    0.000000    0.000000
        0.000000    6.151677    0.000000
        0.000000    0.000000    6.059025

outcell: Cell vector modules (Ang)   :    7.718081    6.151677    6.059025
outcell: Cell angles (23,13,12) (deg):     90.0000     90.0000     90.0000
outcell: Cell volume (Ang**3)        :    287.6773
New_DM. Step:     1
Initializing Density Matrix...

InitMesh: MESH =    54 x    48 x    40 =      103680
InitMesh: Mesh cutoff (required, used) =   120.000   120.453 Ry

* Maximum dynamic memory allocated =     4 MB

stepf: Fermi-Dirac step function

siesta: Program's energy decomposition (eV):
siesta: Ebs     =      -127.275202
siesta: Eions   =       815.854478
siesta: Ena     =       174.498421
siesta: Ekin    =       342.686634
siesta: Enl     =       -53.683622
siesta: DEna    =        -0.000001
siesta: DUscf   =         0.000000
siesta: DUext   =         0.000000
siesta: Exc     =      -112.286040
siesta: eta*DQ  =         0.000000
siesta: Emadel  =         0.000000
siesta: Emeta   =         0.000000
siesta: Emolmec =         0.000000
siesta: Ekinion =         0.000000
siesta: Eharris =      -469.535112
siesta: Etot    =      -464.639087
siesta: FreeEng =      -464.639087

siesta: iscf   Eharris(eV)      E_KS(eV)   FreeEng(eV)   dDmax  Ef(eV)
siesta:    1     -469.5351     -464.6391     -464.6391  1.2069 -5.7875
timer: Routine,Calls,Time,% = IterSCF        1       3.952  70.83
elaps: Routine,Calls,Wall,% = IterSCF        1       0.979  69.73
siesta:    2     -470.5150     -467.7788     -467.7788  0.2683 -0.6880
siesta:    3     -468.7759     -467.8849     -467.8849  0.1017 -3.1630
siesta:    4     -468.7570     -468.3990     -468.3990  0.0136 -3.3152
siesta:    5     -468.7566     -468.5440     -468.5440  0.0053 -3.3323
siesta:    6     -468.7566     -468.7357     -468.7357  0.0008 -3.3079
siesta:    7     -468.7566     -468.7556     -468.7556  0.0002 -3.3088
siesta:    8     -468.7566     -468.7564     -468.7564  0.0001 -3.3117
siesta:    9     -468.7566     -468.7566     -468.7566  0.0000 -3.3116

siesta: E_KS(eV) =             -468.7566

siesta: E_KS - E_eggbox =      -468.7566

zmatrix: Atomic forces (eV/Ang ; eV/deg )
zmatrix: (No information if symbols are used)
molecule    1 (     3 atoms)
     1    0.000000    0.000000    0.000000
     2    0.000000    0.000000    0.000000
     3    0.000000    0.000000    0.000000


Variable forces (eV/Ang ; eV/deg )
 ho1         0.57001457897796171     
 ho2         0.57251336963108568     
 hoh         2.13530640749154963E-003

siesta: Atomic forces (eV/Ang):
----------------------------------------
   Tot   -0.001950    0.093072    0.000002
----------------------------------------
   Max    0.528723
   Res    0.307820    sqrt( Sum f_i^2 / 3N )
----------------------------------------
   Max    0.528723    constrained

Stress-tensor-Voigt (kbar):       -4.36       -1.26       -0.49        0.01       -0.00        0.00
(Free)E + p*V (eV/cell)     -468.3909
Target enthalpy (eV/cell)     -468.7566

* Maximum dynamic memory allocated =     4 MB

siesta:                 ==============================
                            Begin CG move =      1

zmatrix: Z-matrix coordinates: (Ang ; deg )
zmatrix: (Fractional coordinates have been converted to cartesian)
molecule    1 (     3 atoms)
      0.00000000      0.00000000      0.00000000
      1.06237047     90.00000000     37.74391900
      1.06283240    108.62752604     90.00000000


Z-matrix Symbol Section -------
Variables
 ho1          1.0623704710349873     
 ho2          1.0628324000000000     
 hoh          108.62752603552894     
Constants
------------ End of Z-matrix Information

                        ==============================

outcell: Unit cell vectors (Ang):
        7.718081    0.000000    0.000000
        0.000000    6.151677    0.000000
        0.000000    0.000000    6.059025

outcell: Cell vector modules (Ang)   :    7.718081    6.151677    6.059025
outcell: Cell angles (23,13,12) (deg):     90.0000     90.0000     90.0000
outcell: Cell volume (Ang**3)        :    287.6773
New_DM. Step:     2
Re-using DM from previous geometry...
Re-using DM without extrapolation (not allowed)
Density Matrix sparsity pattern changed.

siesta: iscf   Eharris(eV)      E_KS(eV)   FreeEng(eV)   dDmax  Ef(eV)
siesta:    1     -468.4152     -467.1388     -467.1388  0.1525 -2.8998
siesta:    2     -468.4328     -468.3462     -468.3462  0.0673 -3.5156
siesta:    3     -468.3797     -468.1885     -468.1885  0.0162 -3.1139
siesta:    4     -468.3794     -468.3495     -468.3495  0.0049 -3.0940
siesta:    5     -468.3792     -468.3708     -468.3708  0.0011 -3.1110
siesta:    6     -468.3792     -468.3761     -468.3761  0.0003 -3.1080
siesta:    7     -468.3792     -468.3788     -468.3788  0.0001 -3.1076

siesta: E_KS(eV) =             -468.3790

zmatrix: Atomic forces (eV/Ang ; eV/deg )
zmatrix: (No information if symbols are used)
molecule    1 (     3 atoms)
     1    0.000000    0.000000    0.000000
     2    0.000000    0.000000    0.000000
     3    0.000000    0.000000    0.000000


Variable forces (eV/Ang ; eV/deg )
 ho1         -3.4159726848115710     
 ho2         -3.4395106038034085     
 hoh        -9.16253782234796067E-003

siesta: Atomic forces (eV/Ang):
----------------------------------------
   Tot    0.004109    0.103967   -0.000001
----------------------------------------
   Max    3.293468
   Res    1.967954    sqrt( Sum f_i^2 / 3N )
----------------------------------------
   Max    3.293468    constrained

Stress-tensor-Voigt (kbar):       29.67       11.43       -0.51        0.62       -0.00       -0.00
(Free)E + p*V (eV/cell)     -470.8081
Target enthalpy (eV/cell)     -468.3790

* Maximum dynamic memory allocated =     4 MB

siesta:                 ==============================
                            Begin CG move =      2

zmatrix: Z-matrix coordinates: (Ang ; deg )
zmatrix: (Fractional coordinates have been converted to cartesian)
molecule    1 (     3 atoms)
      0.00000000      0.00000000      0.00000000
      0.97233319     90.00000000     37.74391900
      0.97240042    104.67349597     90.00000000


Z-matrix Symbol Section -------
Variables
 ho1         0.97233318779921152     
 ho2         0.97240041752304751     
 hoh          104.67349597227428     
Constants
------------ End of Z-matrix Information

                        ==============================

outcell: Unit cell vectors (Ang):
        7.718081    0.000000    0.000000
        0.000000    6.151677    0.000000
        0.000000    0.000000    6.059025

outcell: Cell vector modules (Ang)   :    7.718081    6.151677    6.059025
outcell: Cell angles (23,13,12) (deg):     90.0000     90.0000     90.0000
outcell: Cell volume (Ang**3)        :    287.6773
New_DM. Step:     3
Re-using DM from previous geometry...
Re-using DM without extrapolation (not allowed)

siesta: iscf   Eharris(eV)      E_KS(eV)   FreeEng(eV)   dDmax  Ef(eV)
siesta:    1     -468.7941     -469.5675     -469.5675  0.1311 -3.5410
siesta:    2     -468.8252     -468.7254     -468.7254  0.0598 -2.7863
siesta:    3     -468.7632     -468.8827     -468.8827  0.0145 -3.2314
siesta:    4     -468.7627     -468.7611     -468.7611  0.0029 -3.2676
siesta:    5     -468.7626     -468.7640     -468.7640  0.0005 -3.2566
siesta:    6     -468.7626     -468.7630     -468.7630  0.0003 -3.2550
siesta:    7     -468.7626     -468.7625     -468.7625  0.0001 -3.2568

siesta: E_KS(eV) =             -468.7625

zmatrix: Atomic forces (eV/Ang ; eV/deg )
zmatrix: (No information if symbols are used)
molecule    1 (     3 atoms)
     1    0.000000    0.000000    0.000000
     2    0.000000    0.000000    0.000000
     3    0.000000    0.000000    0.000000


Variable forces (eV/Ang ; eV/deg )
 ho1        -0.21775211320019167     
 ho2        -0.22200447764730519     
 hoh         2.22850838669627665E-004

siesta: Atomic forces (eV/Ang):
----------------------------------------
   Tot    0.000304    0.096596    0.000000
----------------------------------------
   Max    0.385968
   Res    0.165337    sqrt( Sum f_i^2 / 3N )
----------------------------------------
   Max    0.385968    constrained

Stress-tensor-Voigt (kbar):        1.46        1.35       -0.49       -0.01        0.00       -0.00
(Free)E + p*V (eV/cell)     -468.9013
Target enthalpy (eV/cell)     -468.7625

cgvc_zmatrix: Finished line minimization    1.  Mean atomic displacement =    0.0247

* Maximum dynamic memory allocated =     4 MB

siesta:                 ==============================
                            Begin CG move =      3

zmatrix: Z-matrix coordinates: (Ang ; deg )
zmatrix: (Fractional coordinates have been converted to cartesian)
molecule    1 (     3 atoms)
      0.00000000      0.00000000      0.00000000
      0.98073995     90.00000000     37.74391900
      0.98037468    106.77548916     90.00000000


Z-matrix Symbol Section -------
Variables
 ho1         0.98073994534723363     
 ho2         0.98037467662554290     
 hoh          106.77548916242395     
Constants
------------ End of Z-matrix Information

                        ==============================

outcell: Unit cell vectors (Ang):
        7.718081    0.000000    0.000000
        0.000000    6.151677    0.000000
        0.000000    0.000000    6.059025

outcell: Cell vector modules (Ang)   :    7.718081    6.151677    6.059025
outcell: Cell angles (23,13,12) (deg):     90.0000     90.0000     90.0000
outcell: Cell volume (Ang**3)        :    287.6773
New_DM. Step:     4
Re-using DM from previous geometry...
Re-using DM without extrapolation (not allowed)

siesta: iscf   Eharris(eV)      E_KS(eV)   FreeEng(eV)   dDmax  Ef(eV)
siesta:    1     -468.7535     -468.6596     -468.6596  0.0276 -3.1615
siesta:    2     -468.7527     -468.7522     -468.7522  0.0020 -3.1538
siesta:    3     -468.7525     -468.7484     -468.7484  0.0012 -3.1533
siesta:    4     -468.7525     -468.7519     -468.7519  0.0004 -3.1559
siesta:    5     -468.7525     -468.7523     -468.7523  0.0001 -3.1571
siesta:    6     -468.7525     -468.7525     -468.7525  0.0000 -3.1567

siesta: E_KS(eV) =             -468.7525

zmatrix: Atomic forces (eV/Ang ; eV/deg )
zmatrix: (No information if symbols are used)
molecule    1 (     3 atoms)
     1    0.000000    0.000000    0.000000
     2    0.000000    0.000000    0.000000
     3    0.000000    0.000000    0.000000


Variable forces (eV/Ang ; eV/deg )
 ho1        -0.67141266099641050     
 ho2        -0.65465132696620176     
 hoh        -2.85477790835736650E-003

siesta: Atomic forces (eV/Ang):
----------------------------------------
   Tot   -0.001834    0.097603    0.000001
----------------------------------------
   Max    0.634090
   Res    0.382872    sqrt( Sum f_i^2 / 3N )
----------------------------------------
   Max    0.634090    constrained

Stress-tensor-Voigt (kbar):        5.57        2.08       -0.49        0.12       -0.00       -0.00
(Free)E + p*V (eV/cell)     -469.1809
Target enthalpy (eV/cell)     -468.7525

* Maximum dynamic memory allocated =     4 MB

siesta:                 ==============================
                            Begin CG move =      4

zmatrix: Z-matrix coordinates: (Ang ; deg )
zmatrix: (Fractional coordinates have been converted to cartesian)
molecule    1 (     3 atoms)
      0.00000000      0.00000000      0.00000000
      0.97041562     90.00000000     37.74391900
      0.97058150    104.19403429     90.00000000


Z-matrix Symbol Section -------
Variables
 ho1         0.97041561827177891     
 ho2         0.97058150028040679     
 hoh          104.19403429334787     
Constants
------------ End of Z-matrix Information

                        ==============================

outcell: Unit cell vectors (Ang):
        7.718081    0.000000    0.000000
        0.000000    6.151677    0.000000
        0.000000    0.000000    6.059025

outcell: Cell vector modules (Ang)   :    7.718081    6.151677    6.059025
outcell: Cell angles (23,13,12) (deg):     90.0000     90.0000     90.0000
outcell: Cell volume (Ang**3)        :    287.6773
New_DM. Step:     5
Re-using DM from previous geometry...
Re-using DM without extrapolation (not allowed)
Density Matrix sparsity pattern changed.

siesta: iscf   Eharris(eV)      E_KS(eV)   FreeEng(eV)   dDmax  Ef(eV)
siesta:    1     -468.7644     -468.8707     -468.8707  0.0339 -3.2782
siesta:    2     -468.7632     -468.7624     -468.7624  0.0027 -3.2816
siesta:    3     -468.7630     -468.7672     -468.7672  0.0016 -3.2854
siesta:    4     -468.7629     -468.7636     -468.7636  0.0005 -3.2832
siesta:    5     -468.7629     -468.7631     -468.7631  0.0002 -3.2812
siesta:    6     -468.7629     -468.7629     -468.7629  0.0000 -3.2817

siesta: E_KS(eV) =             -468.7629

zmatrix: Atomic forces (eV/Ang ; eV/deg )
zmatrix: (No information if symbols are used)
molecule    1 (     3 atoms)
     1    0.000000    0.000000    0.000000
     2    0.000000    0.000000    0.000000
     3    0.000000    0.000000    0.000000


Variable forces (eV/Ang ; eV/deg )
 ho1        -0.11075801793508741     
 ho2        -0.11837740633163668     
 hoh         9.56158138508669841E-004

siesta: Atomic forces (eV/Ang):
----------------------------------------
   Tot   -0.000609    0.097098   -0.000001
----------------------------------------
   Max    0.327009
   Res    0.124558    sqrt( Sum f_i^2 / 3N )
----------------------------------------
   Max    0.327009    constrained

Stress-tensor-Voigt (kbar):        0.52        1.16       -0.49       -0.02        0.00        0.00
(Free)E + p*V (eV/cell)     -468.8342
Target enthalpy (eV/cell)     -468.7629

cgvc_zmatrix: Finished line minimization    2.  Mean atomic displacement =    0.0056

* Maximum dynamic memory allocated =     4 MB

siesta:                 ==============================
                            Begin CG move =      5

zmatrix: Z-matrix coordinates: (Ang ; deg )
zmatrix: (Fractional coordinates have been converted to cartesian)
molecule    1 (     3 atoms)
      0.00000000      0.00000000      0.00000000
      0.96720310     90.00000000     37.74391900
      0.96717895    104.42869875     90.00000000


Z-matrix Symbol Section -------
Variables
 ho1         0.96720310190367831     
 ho2         0.96717895034824464     
 hoh          104.42869874972432     
Constants
------------ End of Z-matrix Information

                        ==============================

outcell: Unit cell vectors (Ang):
        7.718081    0.000000    0.000000
        0.000000    6.151677    0.000000
        0.000000    0.000000    6.059025

outcell: Cell vector modules (Ang)   :    7.718081    6.151677    6.059025
outcell: Cell angles (23,13,12) (deg):     90.0000     90.0000     90.0000
outcell: Cell volume (Ang**3)        :    287.6773
New_DM. Step:     6
Re-using DM from previous geometry...
Re-using DM without extrapolation (not allowed)

siesta: iscf   Eharris(eV)      E_KS(eV)   FreeEng(eV)   dDmax  Ef(eV)
siesta:    1     -468.7634     -468.8005     -468.8005  0.0058 -3.2897
siesta:    2     -468.7635     -468.7633     -468.7633  0.0029 -3.2533
siesta:    3     -468.7634     -468.7703     -468.7703  0.0008 -3.2739
siesta:    4     -468.7634     -468.7637     -468.7637  0.0001 -3.2757
siesta:    5     -468.7634     -468.7635     -468.7635  0.0000 -3.2754

siesta: E_KS(eV) =             -468.7634

zmatrix: Atomic forces (eV/Ang ; eV/deg )
zmatrix: (No information if symbols are used)
molecule    1 (     3 atoms)
     1    0.000000    0.000000    0.000000
     2    0.000000    0.000000    0.000000
     3    0.000000    0.000000    0.000000


Variable forces (eV/Ang ; eV/deg )
 ho1         3.80877734164442039E-002
 ho2         3.95158905510964165E-002
 hoh         8.77525844206576049E-004

siesta: Atomic forces (eV/Ang):
----------------------------------------
   Tot   -0.000201    0.095715   -0.000004
----------------------------------------
   Max    0.130327
   Res    0.053127    sqrt( Sum f_i^2 / 3N )
----------------------------------------
   Max    0.130327    constrained

Stress-tensor-Voigt (kbar):       -0.48        0.50       -0.49        0.00        0.00        0.00
(Free)E + p*V (eV/cell)     -468.7355
Target enthalpy (eV/cell)     -468.7634

* Maximum dynamic memory allocated =     4 MB

siesta:                 ==============================
                            Begin CG move =      6

zmatrix: Z-matrix coordinates: (Ang ; deg )
zmatrix: (Fractional coordinates have been converted to cartesian)
molecule    1 (     3 atoms)
      0.00000000      0.00000000      0.00000000
      0.96736123     90.00000000     37.74391900
      0.96734643    104.41714820     90.00000000


Z-matrix Symbol Section -------
Variables
 ho1         0.96736122691379922     
 ho2         0.96734642910346680     
 hoh          104.41714820327169     
Constants
------------ End of Z-matrix Information

                        ==============================

outcell: Unit cell vectors (Ang):
        7.718081    0.000000    0.000000
        0.000000    6.151677    0.000000
        0.000000    0.000000    6.059025

outcell: Cell vector modules (Ang)   :    7.718081    6.151677    6.059025
outcell: Cell angles (23,13,12) (deg):     90.0000     90.0000     90.0000
outcell: Cell volume (Ang**3)        :    287.6773
New_DM. Step:     7
Re-using DM from previous geometry...
Re-using DM without extrapolation (not allowed)

siesta: iscf   Eharris(eV)      E_KS(eV)   FreeEng(eV)   dDmax  Ef(eV)
siesta:    1     -468.7634     -468.7616     -468.7616  0.0003 -3.2750
siesta:    2     -468.7634     -468.7634     -468.7634  0.0001 -3.2768
siesta:    3     -468.7634     -468.7630     -468.7630  0.0000 -3.2758

siesta: E_KS(eV) =             -468.7634

zmatrix: Atomic forces (eV/Ang ; eV/deg )
zmatrix: (No information if symbols are used)
molecule    1 (     3 atoms)
     1    0.000000    0.000000    0.000000
     2    0.000000    0.000000    0.000000
     3    0.000000    0.000000    0.000000


Variable forces (eV/Ang ; eV/deg )
 ho1         3.06047870647880027E-002
 ho2         3.18025001154424100E-002
 hoh         8.81807295270048072E-004

siesta: Atomic forces (eV/Ang):
----------------------------------------
   Tot   -0.000215    0.095781   -0.000003
----------------------------------------
   Max    0.140075
   Res    0.054797    sqrt( Sum f_i^2 / 3N )
----------------------------------------
   Max    0.140075    constrained

Stress-tensor-Voigt (kbar):       -0.43        0.53       -0.49        0.00       -0.00        0.00
(Free)E + p*V (eV/cell)     -468.7404
Target enthalpy (eV/cell)     -468.7634

cgvc_zmatrix: Finished line minimization    3.  Mean atomic displacement =    0.0053

* Maximum dynamic memory allocated =     4 MB

siesta:                 ==============================
                            Begin CG move =      7

zmatrix: Z-matrix coordinates: (Ang ; deg )
zmatrix: (Fractional coordinates have been converted to cartesian)
molecule    1 (     3 atoms)
      0.00000000      0.00000000      0.00000000
      0.96751117     90.00000000     37.74391900
      0.96747886    104.94759120     90.00000000


Z-matrix Symbol Section -------
Variables
 ho1         0.96751117160417288     
 ho2         0.96747886150543116     
 hoh          104.94759120341222     
Constants
------------ End of Z-matrix Information

                        ==============================

outcell: Unit cell vectors (Ang):
        7.718081    0.000000    0.000000
        0.000000    6.151677    0.000000
        0.000000    0.000000    6.059025

outcell: Cell vector modules (Ang)   :    7.718081    6.151677    6.059025
outcell: Cell angles (23,13,12) (deg):     90.0000     90.0000     90.0000
outcell: Cell volume (Ang**3)        :    287.6773
New_DM. Step:     8
Re-using DM from previous geometry...
Re-using DM without extrapolation (not allowed)
Density Matrix sparsity pattern changed.

siesta: iscf   Eharris(eV)      E_KS(eV)   FreeEng(eV)   dDmax  Ef(eV)
siesta:    1     -468.7637     -468.7615     -468.7615  0.0048 -3.2588
siesta:    2     -468.7637     -468.7637     -468.7637  0.0013 -3.2408
siesta:    3     -468.7637     -468.7635     -468.7635  0.0005 -3.2496
siesta:    4     -468.7637     -468.7637     -468.7637  0.0001 -3.2512
siesta:    5     -468.7637     -468.7637     -468.7637  0.0000 -3.2514

siesta: E_KS(eV) =             -468.7637

zmatrix: Atomic forces (eV/Ang ; eV/deg )
zmatrix: (No information if symbols are used)
molecule    1 (     3 atoms)
     1    0.000000    0.000000    0.000000
     2    0.000000    0.000000    0.000000
     3    0.000000    0.000000    0.000000


Variable forces (eV/Ang ; eV/deg )
 ho1         6.80688174734318720E-003
 ho2         6.66159009150414389E-003
 hoh         1.96005131199031583E-004

siesta: Atomic forces (eV/Ang):
----------------------------------------
   Tot    0.000987    0.095018   -0.000001
----------------------------------------
   Max    0.105279
   Res    0.035662    sqrt( Sum f_i^2 / 3N )
----------------------------------------
   Max    0.105279    constrained

Stress-tensor-Voigt (kbar):       -0.06        0.42       -0.49        0.00        0.00        0.00
(Free)E + p*V (eV/cell)     -468.7558
Target enthalpy (eV/cell)     -468.7637

* Maximum dynamic memory allocated =     4 MB

siesta:                 ==============================
                            Begin CG move =      8

zmatrix: Z-matrix coordinates: (Ang ; deg )
zmatrix: (Fractional coordinates have been converted to cartesian)
molecule    1 (     3 atoms)
      0.00000000      0.00000000      0.00000000
      0.96775108     90.00000000     37.74391900
      0.96769075    105.79630000     90.00000000


Z-matrix Symbol Section -------
Variables
 ho1         0.96775108310877056     
 ho2         0.96769075334857413     
 hoh          105.79630000363706     
Constants
------------ End of Z-matrix Information

                        ==============================

outcell: Unit cell vectors (Ang):
        7.718081    0.000000    0.000000
        0.000000    6.151677    0.000000
        0.000000    0.000000    6.059025

outcell: Cell vector modules (Ang)   :    7.718081    6.151677    6.059025
outcell: Cell angles (23,13,12) (deg):     90.0000     90.0000     90.0000
outcell: Cell volume (Ang**3)        :    287.6773
New_DM. Step:     9
Re-using DM from previous geometry...
Re-using DM without extrapolation (not allowed)

siesta: iscf   Eharris(eV)      E_KS(eV)   FreeEng(eV)   dDmax  Ef(eV)
siesta:    1     -468.7635     -468.7604     -468.7604  0.0078 -3.2261
siesta:    2     -468.7634     -468.7633     -468.7633  0.0020 -3.1977
siesta:    3     -468.7634     -468.7631     -468.7631  0.0007 -3.2115
siesta:    4     -468.7634     -468.7633     -468.7633  0.0002 -3.2141
siesta:    5     -468.7634     -468.7634     -468.7634  0.0001 -3.2144

siesta: E_KS(eV) =             -468.7634

zmatrix: Atomic forces (eV/Ang ; eV/deg )
zmatrix: (No information if symbols are used)
molecule    1 (     3 atoms)
     1    0.000000    0.000000    0.000000
     2    0.000000    0.000000    0.000000
     3    0.000000    0.000000    0.000000


Variable forces (eV/Ang ; eV/deg )
 ho1        -3.11219942482376145E-002
 ho2        -3.16482789431898892E-002
 hoh        -8.86899900614967172E-004

siesta: Atomic forces (eV/Ang):
----------------------------------------
   Tot    0.001940    0.094823   -0.000001
----------------------------------------
   Max    0.056660
   Res    0.033118    sqrt( Sum f_i^2 / 3N )
----------------------------------------
   Max    0.056660    constrained

Stress-tensor-Voigt (kbar):        0.53        0.23       -0.49        0.01        0.00       -0.00
(Free)E + p*V (eV/cell)     -468.7791
Target enthalpy (eV/cell)     -468.7634

* Maximum dynamic memory allocated =     4 MB

siesta:                 ==============================
                            Begin CG move =      9

zmatrix: Z-matrix coordinates: (Ang ; deg )
zmatrix: (Fractional coordinates have been converted to cartesian)
molecule    1 (     3 atoms)
      0.00000000      0.00000000      0.00000000
      0.96755458     90.00000000     37.74391900
      0.96751720    105.10114197     90.00000000


Z-matrix Symbol Section -------
Variables
 ho1         0.96755457706312686     
 ho2         0.96751719756903776     
 hoh          105.10114196811539     
Constants
------------ End of Z-matrix Information

                        ==============================

outcell: Unit cell vectors (Ang):
        7.718081    0.000000    0.000000
        0.000000    6.151677    0.000000
        0.000000    0.000000    6.059025

outcell: Cell vector modules (Ang)   :    7.718081    6.151677    6.059025
outcell: Cell angles (23,13,12) (deg):     90.0000     90.0000     90.0000
outcell: Cell volume (Ang**3)        :    287.6773
New_DM. Step:    10
Re-using DM from previous geometry...
Re-using DM without extrapolation (not allowed)

siesta: iscf   Eharris(eV)      E_KS(eV)   FreeEng(eV)   dDmax  Ef(eV)
siesta:    1     -468.7638     -468.7655     -468.7655  0.0064 -3.2349
siesta:    2     -468.7637     -468.7637     -468.7637  0.0016 -3.2580
siesta:    3     -468.7637     -468.7638     -468.7638  0.0006 -3.2467
siesta:    4     -468.7637     -468.7637     -468.7637  0.0002 -3.2446
siesta:    5     -468.7637     -468.7637     -468.7637  0.0001 -3.2444

siesta: E_KS(eV) =             -468.7637

zmatrix: Atomic forces (eV/Ang ; eV/deg )
zmatrix: (No information if symbols are used)
molecule    1 (     3 atoms)
     1    0.000000    0.000000    0.000000
     2    0.000000    0.000000    0.000000
     3    0.000000    0.000000    0.000000


Variable forces (eV/Ang ; eV/deg )
 ho1        -5.29744470186571822E-004
 ho2        -2.04319832588788474E-004
 hoh        -1.34879342528299697E-006

siesta: Atomic forces (eV/Ang):
----------------------------------------
   Tot    0.001210    0.094857    0.000003
----------------------------------------
   Max    0.095279
   Res    0.031763    sqrt( Sum f_i^2 / 3N )
----------------------------------------
   Max    0.095279    constrained

Stress-tensor-Voigt (kbar):        0.05        0.38       -0.49        0.00        0.00       -0.00
(Free)E + p*V (eV/cell)     -468.7602
Target enthalpy (eV/cell)     -468.7637

* Maximum dynamic memory allocated =     4 MB

outcoor: Relaxed atomic coordinates (Ang):                  
    0.00000000    0.00000000    0.00000000   1       1  O
    0.76509818    0.59227243   -0.00000000   2       2  H
   -0.77111620    0.58435377   -0.00000000   2       3  H

zmatrix: Z-matrix coordinates: (Ang ; deg )
zmatrix: (Fractional coordinates have been converted to cartesian)
molecule    1 (     3 atoms)
      0.00000000      0.00000000      0.00000000
      0.96755458     90.00000000     37.74391900
      0.96751720    105.10114197     90.00000000


Z-matrix Symbol Section -------
Variables
 ho1         0.96755457706312686     
 ho2         0.96751719756903776     
 hoh          105.10114196811539     
Constants
------------ End of Z-matrix Information


siesta: Program's energy decomposition (eV):
siesta: Ebs     =      -105.547970
siesta: Eions   =       815.854478
siesta: Ena     =       174.417301
siesta: Ekin    =       354.155089
siesta: Enl     =       -63.216598
siesta: DEna    =        -3.444655
siesta: DUscf   =         0.815636
siesta: DUext   =         0.000000
siesta: Exc     =      -115.635985
siesta: eta*DQ  =         0.000000
siesta: Emadel  =         0.000000
siesta: Emeta   =         0.000000
siesta: Emolmec =         0.000000
siesta: Ekinion =         0.000000
siesta: Eharris =      -468.763709
siesta: Etot    =      -468.763690
siesta: FreeEng =      -468.763690

siesta: Final energy (eV):
siesta:  Band Struct. =    -105.547970
siesta:       Kinetic =     354.155089
siesta:       Hartree =     396.072023
siesta:    Ext. field =       0.000000
siesta:   Exch.-corr. =    -115.635985
siesta:  Ion-electron =   -1101.825077
siesta:       Ion-ion =      -1.529740
siesta:       Ekinion =       0.000000
siesta:         Total =    -468.763690

siesta: Atomic forces (eV/Ang):
siesta:      1    0.001389    0.095279    0.000003
siesta:      2   -0.000390   -0.000361    0.000000
siesta:      3    0.000211   -0.000060    0.000000
siesta: ----------------------------------------
siesta:    Tot    0.001210    0.094857    0.000003

siesta: Stress tensor (static) (eV/Ang**3):
siesta:     0.000030    0.000003   -0.000000
siesta:     0.000003    0.000239    0.000000
siesta:    -0.000000    0.000000   -0.000306

siesta: Cell volume =        287.677305 Ang**3

siesta: Pressure (static):
siesta:                Solid            Molecule  Units
siesta:           0.00000013          0.00000061  Ry/Bohr**3
siesta:           0.00001227          0.00005620  eV/Ang**3
siesta:           0.01966216          0.09004420  kBar
(Free)E+ p_basis*V_orbitals  =        -468.055644
(Free)Eharris+ p_basis*V_orbitals  =        -468.055650

siesta: Electric dipole (a.u.)  =   -0.002948    0.588798   -0.000000
siesta: Electric dipole (Debye) =   -0.007493    1.496576   -0.000000

* Maximum dynamic memory allocated : Node    0 =     4 MB
* Maximum dynamic memory allocated : Node    1 =     4 MB
* Maximum dynamic memory allocated : Node    2 =     4 MB
* Maximum dynamic memory allocated : Node    3 =     4 MB

* Maximum memory occured during ranger                        

timer: CPU execution times:
timer:  Routine       Calls   Time/call    Tot.time        %
timer:  siesta            1      28.334      28.334   100.00
timer:  Setup             1       1.151       1.151     4.06
timer:  bands             1       0.000       0.000     0.00
timer:  writewave         1       0.004       0.004     0.01
timer:  KSV_init          1       0.000       0.000     0.00
timer:  IterMD           10       2.716      27.157    95.85
timer:  hsparse          10       0.001       0.009     0.03
timer:  overlap          10       0.033       0.333     1.18
timer:  IterSCF          58       0.383      22.228    78.45
timer:  kinefsm          20       0.015       0.299     1.06
timer:  nlefsm           20       0.149       2.981    10.52
timer:  DHSCF            68       0.323      21.987    77.60
timer:  DHSCF1            1       0.089       0.089     0.31
timer:  DHSCF2           10       0.148       1.476     5.21
timer:  REORD           564       0.000       0.162     0.57
timer:  POISON           78       0.030       2.307     8.14
timer:  DHSCF3           68       0.284      19.313    68.16
timer:  rhoofd           68       0.021       1.432     5.05
timer:  cellXC           68       0.208      14.168    50.00
timer:  vmat             68       0.014       0.962     3.39
timer:  MolMec           20       0.000       0.000     0.00
timer:  diagon           58       0.006       0.348     1.23
timer:  r-eigvec         58       0.006       0.345     1.22
timer:  r-buildHS        58       0.000       0.001     0.00
timer:  rdiag            58       0.006       0.344     1.21
timer:  rdiag1           58       0.000       0.012     0.04
timer:  rdiag2           58       0.000       0.023     0.08
timer:  rdiag3           58       0.005       0.274     0.97
timer:  rdiag4           58       0.000       0.014     0.05
timer:  r-buildD         58       0.000       0.002     0.01
timer:  DHSCF4           10       0.109       1.093     3.86
timer:  dfscf            10       0.093       0.927     3.27
timer:  overfsm          10       0.001       0.008     0.03
timer:  optical           1       0.021       0.021     0.07
  

elaps: ELAPSED times:
elaps:  Routine       Calls   Time/call    Tot.time        %
elaps:  siesta            1       7.107       7.107   100.00
elaps:  Setup             1       0.291       0.291     4.09
elaps:  bands             1       0.000       0.000     0.00
elaps:  writewave         1       0.000       0.000     0.00
elaps:  KSV_init          1       0.000       0.000     0.00
elaps:  IterMD           10       0.681       6.808    95.79
elaps:  hsparse          10       0.000       0.000     0.00
elaps:  overlap          10       0.007       0.067     0.94
elaps:  IterSCF          58       0.095       5.532    77.84
elaps:  kinefsm          20       0.003       0.057     0.80
elaps:  nlefsm           20       0.037       0.749    10.54
elaps:  DHSCF            68       0.082       5.558    78.20
elaps:  DHSCF1            1       0.023       0.023     0.32
elaps:  DHSCF2           10       0.037       0.368     5.18
elaps:  REORD           564       0.000       0.046     0.65
elaps:  POISON           78       0.007       0.580     8.16
elaps:  DHSCF3           68       0.071       4.832    67.99
elaps:  rhoofd           68       0.006       0.432     6.08
elaps:  cellXC           68       0.052       3.541    49.82
elaps:  vmat             68       0.004       0.243     3.42
elaps:  MolMec           20       0.000       0.000     0.00
elaps:  diagon           58       0.002       0.092     1.29
elaps:  r-eigvec         58       0.002       0.089     1.25
elaps:  r-buildHS        58       0.000       0.000     0.00
elaps:  rdiag            58       0.002       0.089     1.25
elaps:  rdiag1           58       0.000       0.005     0.07
elaps:  rdiag2           58       0.000       0.005     0.07
elaps:  rdiag3           58       0.001       0.070     0.98
elaps:  rdiag4           58       0.000       0.005     0.07
elaps:  r-buildD         58       0.000       0.003     0.04
elaps:  DHSCF4           10       0.033       0.331     4.66
elaps:  dfscf            10       0.028       0.276     3.88
elaps:  overfsm          10       0.000       0.003     0.04
elaps:  optical           1       0.000       0.000     0.00
  
>> End of run:  24-MAR-2013  18:28:34
