Siesta Version  : v4.1-b4-351
Architecture    : x86_64-linux-n-62-26-19
Compiler version: GNU Fortran (GCC) 9.3.0
Compiler flags  : mpifort -m64 -fPIC -O3 -march=native -ftree-vectorize -fexpensive-optimizatioons -funroll-loops -fprefetch-loop-arrays -fno-second-underscore  -flto
PP flags        : -I/dtu/sw/dcc/SL73/2020-aug/generic/build-tools/1.0/include -I/dtu/sw/dcc/SL773/2020-aug/generic/gcc/9.3.0/include -I/dtu/sw/dcc/SL73/2020-aug/generic/gcc/9.3.0/include -I/dtu/sw/dcc/SL73/2020-aug/XeonE5-2660v3/gnu/9.3.0/zlib/1.2.11/include -I/dtu/sw/dcc/SL73/2020-aug/generic/numactl/2.0.12/include -I/dtu/sw/dcc/SL73/2020-aug/XeonE5-2660v3/gnu/9.3.0/libxml2/2.9.10/include -I/dtu/sw/dcc/SL73/2020-aug/XeonE5-2660v3/gnu/9.3.0/hwloc/2.2.0/include -I/dtu/sw/dcc/SL73/2020-aug/XeonE5-2660v3/gnu/9.3.0/knem/1.1.4/include -I/dtu/sw/dcc/SL73/2020-aug/XeonE5-2660v3/gnu/9.3.0/ucx/1.8.1/include -I/dtu/sw/dcc/SL73/2020-aug/XeonE5-2660v3/gnu/9.3.0/openmpi/4.0.4/include -I/dtu/sw/dcc/SL73/2020-aug/XeonE5-2660v3/gnu/9.3.0/szip/2.1.1/include -I/dtu/sw/dcc/SL73/2020-aug/XeonE5-2660v3/gnu/9.3.0/hdf5/1.12.0/include -I/dtu/sw/dcc/SL73/2020-aug/XeonE5-2660v3/gnu/9.3.0/pnetcdf/1.12.1/include -I/dtu/sw/dcc/SL73/2020-aug/generic/gen-zlib/1.2.11/include -I/dtu/sw/dcc/SL73/2020-aug/generic/openssl/1.1.1/include -I/dtu/sw/dcc/SL73/2020-aug/generic/libssh2/1.8.2/include -I/dtu/sw/dcc/SL73/2020-aug/generic/curl/7.65.1/include -I/dtu/sw/dcc/SL73/2020-aug/XeonE5-2660v3/gnu/9.3.0/netcdf/4.7.4/include -I/dtu/sw/dcc/SL73/2020-aug/XeonE5-2660v3/gnu/9.3.0/flook/0.8.1/include -I/dtu/sw/dcc/SL73/2020-aug/XeonE5-2660v3/gnu/9.3.0/fftw/3.3.8/include -I/dtu/sw/dcc/SL73/2020-aug/XeonE5-2660v3/gnu/9.3.0/parmetis/4.0.3/include -I/dtu/sw/dcc/SL73/2020-aug/XeonE5-2660v3/gnu/9.3.0/scalapack/2.1.0/include -I/dtu/sw/dcc/SL73/2020-aug/XeonE5-2660v3/gnu/9.3.0/lapack/3.9.0/include -I/dtu/sw/dcc/SL73/2020-aug/XeonE5-2660v3/gnu/9.3.0/blis/0.7.0/include -I/dtu/sw/dcc/SL73/2020-aug/XeonE5-2660v3/gnu/9.3.0/scotch/6.0.9/include -I/dtu/sw/dcc/SL73/2020-aug/XeonE5-2660v3/gnu/9.3.0/mumps/5.3.3/include -I/dtu/sw/dcc/SL73/2020-aug/XeonE5-2660v3/gnu/9.3.0/elpa/2020.05.001/include -DSIESTA__ELPA -DMPI -DFC_HAVE_FLUSH -DFC_HAVE_ABORT -DCDF -DCDF4 -DSIESTA__FLOOK  -DNCDF -DNCDF_4 -DNCDF_PARALLEL -DTS_NOCHECKS -DSIESTA__METIS -DSIESTA__MUMPS -DSIESTA__MRRR -I/dtu/sw/dcc/SL73/2020-aug/XeonE5-2660v3/gnu/9.3.0/elpa/2020.05.001/include/elpa
Libraries       : libncdf.a libfdict.a -lnetcdff -lnetcdf -lpnetcdf -lhdf5_hl -lhdf5 -lz  -lzmuumps -lmumps_common -lesmumps -lscotch -lscotcherr -lpord -lparmetis -lmetis -lelpa -lscalapack -llapack -lblis  -L/dtu/sw/dcc/SL73/2020-aug/XeonE5-2660v3/gnu/9.3.0/flook/0.8.1/lib -Wl,-rpath=/dtu/sw/dcc/SL73/2020-aug/XeonE5-2660v3/gnu/9.3.0/flook/0.8.1/lib -lflookall -ldl  -flto -fuse-linker-plugin  -lmetis
PARALLEL version
NetCDF support
NetCDF-4 support
NetCDF-4 MPI-IO support
METIS ordering support
Lua support

* Running on 8 nodes in parallel
>> Start of run:  22-JAN-2021  23:11:00

                           ***********************       
                           *  WELCOME TO SIESTA  *       
                           ***********************       

reinit: Reading from ../h2oZ.fdf

reinit: -----------------------------------------------------------------------
reinit: System Name: h2oZ
reinit: -----------------------------------------------------------------------
reinit: System Label: h2oZ
reinit: -----------------------------------------------------------------------

initatom: Reading input for the pseudopotentials and atomic orbitals ----------
Species number:   1 Atomic number:    8 Label: O
Species number:   2 Atomic number:    1 Label: H

Ground state valence configuration:   2s02  2p04
Reading pseudopotential information in formatted form from O.psf

Valence configuration for pseudopotential generation:
2s( 2.00) rc: 1.14
2p( 4.00) rc: 1.14
3d( 0.00) rc: 1.14
4f( 0.00) rc: 1.14
Ground state valence configuration:   1s01
Reading pseudopotential information in formatted form from H.psf

Valence configuration for pseudopotential generation:
1s( 1.00) rc: 1.25
2p( 0.00) rc: 1.25
3d( 0.00) rc: 1.25
4f( 0.00) rc: 1.25
For O, standard SIESTA heuristics set lmxkb to 3
 (one more than the basis l, including polarization orbitals).
Use PS.lmax or PS.KBprojectors blocks to override.
For H, standard SIESTA heuristics set lmxkb to 2
 (one more than the basis l, including polarization orbitals).
Use PS.lmax or PS.KBprojectors blocks to override.

<basis_specs>
===============================================================================
O                    Z=   8    Mass=  16.000        Charge= 0.17977+309
Lmxo=1 Lmxkb= 3    BasisType=split      Semic=F
L=0  Nsemic=0  Cnfigmx=2
          i=1  nzeta=2  polorb=0  (2s)
            splnorm:   0.15000    
               vcte:    0.0000    
               rinn:    0.0000    
               qcoe:    0.0000    
               qyuk:    0.0000    
               qwid:   0.10000E-01
                rcs:    0.0000      0.0000    
            lambdas:    1.0000      1.0000    
L=1  Nsemic=0  Cnfigmx=2
          i=1  nzeta=2  polorb=1  (2p)
            splnorm:   0.15000    
               vcte:    0.0000    
               rinn:    0.0000    
               qcoe:    0.0000    
               qyuk:    0.0000    
               qwid:   0.10000E-01
                rcs:    0.0000      0.0000    
            lambdas:    1.0000      1.0000    
-------------------------------------------------------------------------------
L=0  Nkbl=1  erefs: 0.17977+309
L=1  Nkbl=1  erefs: 0.17977+309
L=2  Nkbl=1  erefs: 0.17977+309
L=3  Nkbl=1  erefs: 0.17977+309
===============================================================================
</basis_specs>

atom: Called for O                     (Z =   8)

read_vps: Pseudopotential generation method:
read_vps: ATM3      Troullier-Martins                       
Valence charge for ps generation:    6.00000

xc_check: Exchange-correlation functional:
xc_check: GGA Perdew, Burke & Ernzerhof 1996
xc_check: WARNING: Pseudopotential generated with LDA CA functional
V l=0 = -2*Zval/r beyond r=  1.1278
V l=1 = -2*Zval/r beyond r=  1.1278
V l=2 = -2*Zval/r beyond r=  1.1278
V l=3 = -2*Zval/r beyond r=  1.1138
All V_l potentials equal beyond r=  1.1278
This should be close to max(r_c) in ps generation
All pots = -2*Zval/r beyond r=  1.1278

VLOCAL1: 99.0% of the norm of Vloc inside     34.126 Ry
VLOCAL1: 99.9% of the norm of Vloc inside     77.774 Ry
atom: Maximum radius for 4*pi*r*r*local-pseudopot. charge    1.37759
atom: Maximum radius for r*vlocal+2*Zval:    1.18566
GHOST: No ghost state for L =  0
GHOST: No ghost state for L =  1
GHOST: No ghost state for L =  2
GHOST: No ghost state for L =  3

KBgen: Kleinman-Bylander projectors: 
   l= 0   rc=  1.294105   el= -1.764717   Ekb=  9.120606   kbcos=  0.329038
   l= 1   rc=  1.294105   el= -0.698441   Ekb= -8.119783   kbcos= -0.400859
   l= 2   rc=  1.448233   el=  0.002031   Ekb= -2.039067   kbcos= -0.003490
   l= 3   rc=  1.561052   el=  0.003153   Ekb= -0.799361   kbcos= -0.000345

KBgen: Total number of  Kleinman-Bylander projectors:   16
atom: -------------------------------------------------------------------------

atom: SANKEY-TYPE ORBITALS:
atom: Selected multiple-zeta basis: split     

SPLIT: Orbitals with angular momentum L= 0

SPLIT: Basis orbitals for state 2s

SPLIT: PAO cut-off radius determined from an
SPLIT: energy shift=  0.010000 Ry

   izeta = 1
                 lambda =    1.000000
                     rc =    3.562532
                 energy =   -1.755511
                kinetic =    1.600463
    potential(screened) =   -3.355974
       potential(ionic) =  -11.286134

   izeta = 2
                 rmatch =    2.510382
              splitnorm =    0.150000
                 energy =   -1.503288
                kinetic =    2.454016
    potential(screened) =   -3.957304
       potential(ionic) =  -12.483069

SPLIT: Orbitals with angular momentum L= 1

SPLIT: Basis orbitals for state 2p

SPLIT: PAO cut-off radius determined from an
SPLIT: energy shift=  0.010000 Ry

   izeta = 1
                 lambda =    1.000000
                     rc =    4.243912
                 energy =   -0.688662
                kinetic =    5.026374
    potential(screened) =   -5.715036
       potential(ionic) =  -13.477958

   izeta = 2
                 rmatch =    2.573941
              splitnorm =    0.150000
                 energy =   -0.419104
                kinetic =    7.468683
    potential(screened) =   -7.887787
       potential(ionic) =  -16.547632

POLgen: Perturbative polarization orbital with L=  2

POLgen: Polarization orbital for state 2p

   izeta = 1
                     rc =    4.243912
                 energy =    2.313152
                kinetic =    4.581177
    potential(screened) =   -2.268025
       potential(ionic) =   -8.473102
atom: Total number of Sankey-type orbitals: 13

atm_pop: Valence configuration (for local Pseudopot. screening):
 2s( 2.00)                                                            
 2p( 4.00)                                                            
Vna: chval, zval:    6.00000   6.00000

Vna:  Cut-off radius for the neutral-atom potential:   4.243912

atom: _________________________________________________________________________

<basis_specs>
===============================================================================
H                    Z=   1    Mass=  1.0100        Charge= 0.17977+309
Lmxo=0 Lmxkb= 2    BasisType=split      Semic=F
L=0  Nsemic=0  Cnfigmx=1
          i=1  nzeta=2  polorb=1  (1s)
            splnorm:   0.15000    
               vcte:    0.0000    
               rinn:    0.0000    
               qcoe:    0.0000    
               qyuk:    0.0000    
               qwid:   0.10000E-01
                rcs:    0.0000      0.0000    
            lambdas:    1.0000      1.0000    
-------------------------------------------------------------------------------
L=0  Nkbl=1  erefs: 0.17977+309
L=1  Nkbl=1  erefs: 0.17977+309
L=2  Nkbl=1  erefs: 0.17977+309
===============================================================================
</basis_specs>

atom: Called for H                     (Z =   1)

read_vps: Pseudopotential generation method:
read_vps: ATM3      Troullier-Martins                       
Valence charge for ps generation:    1.00000

xc_check: Exchange-correlation functional:
xc_check: GGA Perdew, Burke & Ernzerhof 1996
xc_check: WARNING: Pseudopotential generated with LDA CA functional
V l=0 = -2*Zval/r beyond r=  1.2343
V l=1 = -2*Zval/r beyond r=  1.2189
V l=2 = -2*Zval/r beyond r=  1.2189
All V_l potentials equal beyond r=  1.2343
This should be close to max(r_c) in ps generation
All pots = -2*Zval/r beyond r=  1.2343

VLOCAL1: 99.0% of the norm of Vloc inside     28.493 Ry
VLOCAL1: 99.9% of the norm of Vloc inside     64.935 Ry
atom: Maximum radius for 4*pi*r*r*local-pseudopot. charge    1.45251
atom: Maximum radius for r*vlocal+2*Zval:    1.21892
GHOST: No ghost state for L =  0
GHOST: No ghost state for L =  1
GHOST: No ghost state for L =  2

KBgen: Kleinman-Bylander projectors: 
   l= 0   rc=  1.364359   el= -0.488086   Ekb= -2.002077   kbcos= -0.347561
   l= 1   rc=  1.434438   el=  0.001075   Ekb= -0.501617   kbcos= -0.021754
   l= 2   rc=  1.470814   el=  0.002010   Ekb= -0.190607   kbcos= -0.002284

KBgen: Total number of  Kleinman-Bylander projectors:    9
atom: -------------------------------------------------------------------------

atom: SANKEY-TYPE ORBITALS:
atom: Selected multiple-zeta basis: split     

SPLIT: Orbitals with angular momentum L= 0

SPLIT: Basis orbitals for state 1s

SPLIT: PAO cut-off radius determined from an
SPLIT: energy shift=  0.010000 Ry

   izeta = 1
                 lambda =    1.000000
                     rc =    5.204501
                 energy =   -0.478113
                kinetic =    0.940144
    potential(screened) =   -1.418257
       potential(ionic) =   -1.931985

   izeta = 2
                 rmatch =    3.903467
              splitnorm =    0.150000
                 energy =   -0.372060
                kinetic =    1.517336
    potential(screened) =   -1.889395
       potential(ionic) =   -2.425474

POLgen: Perturbative polarization orbital with L=  1

POLgen: Polarization orbital for state 1s

   izeta = 1
                     rc =    5.204501
                 energy =    0.663382
                kinetic =    1.340502
    potential(screened) =   -0.677120
       potential(ionic) =   -1.151756
atom: Total number of Sankey-type orbitals:  5

atm_pop: Valence configuration (for local Pseudopot. screening):
 1s( 1.00)                                                            
Vna: chval, zval:    1.00000   1.00000

Vna:  Cut-off radius for the neutral-atom potential:   5.204501

atom: _________________________________________________________________________

prinput: Basis input ----------------------------------------------------------

PAO.BasisType split     

%block ChemicalSpeciesLabel
    1    8 O                       # Species index, atomic number, species label
    2    1 H                       # Species index, atomic number, species label
%endblock ChemicalSpeciesLabel

%block PAO.Basis                 # Define Basis set
O                     2                    # Species label, number of l-shells
 n=2   0   2                         # n, l, Nzeta 
   3.563      2.510   
   1.000      1.000   
 n=2   1   2 P   1                   # n, l, Nzeta, Polarization, NzetaPol
   4.244      2.574   
   1.000      1.000   
H                     1                    # Species label, number of l-shells
 n=1   0   2 P   1                   # n, l, Nzeta, Polarization, NzetaPol
   5.205      3.903   
   1.000      1.000   
%endblock PAO.Basis

prinput: ----------------------------------------------------------------------

Dumping basis to NetCDF file O.ion.nc
Dumping basis to NetCDF file H.ion.nc
coor:   Atomic-coordinates input format  =     Cartesian coordinates
coor:                                          (in Angstroms)
read_Zmatrix: Length units: Ang       
read_Zmatrix: Angle  units: deg       
read_Zmatrix: Force tolerances:
read_Zmatrix:    for lengths =     0.001556 Ry/Bohr
read_Zmatrix:    for angles  =     0.000421 Ry/rad

read_Zmatrix: Maximum displacements:
read_Zmatrix:    for lengths =     0.200000 Bohr
read_Zmatrix:    for angles  =     0.349066 rad
%block Zmatrix
molecule_cartesian
  1 0 0 0   0.0 0.0 0.0 0 0 0
  2 1 0 0   HO1 90.0 37.743919 1 0 0
  2 1 2 0   HO2 HOH 90.0 1 1 0
variables
    HO1 0.956997
    HO2 0.956997
    HOH 104.0
%endblock Zmatrix
 nZmol:            1
 nSpecies:            1           2           2

zmatrix: Z-matrix coordinates: (Ang ; deg )
zmatrix: (Fractional coordinates have been converted to cartesian)
molecule    1 (     3 atoms)
      0.00000000      0.00000000      0.00000000
      0.95699700     90.00000000     37.74391900
      0.95699700    104.00000000     90.00000000


Z-matrix Symbol Section -------
Variables
 HO1         0.95699699999999988     
 HO2         0.95699699999999988     
 HOH          104.00000000000014     
Constants
------------ End of Z-matrix Information


siesta: Atomic coordinates (Bohr) and species
siesta:      0.00000   0.00000   0.00000  1        1
siesta:      1.43005   1.10702  -0.00000  2        2
siesta:     -1.42010   1.11976  -0.00000  2        3

siesta: Automatic unit cell vectors (Ang):
siesta:    7.718081    0.000000    0.000000
siesta:    0.000000    6.151677    0.000000
siesta:    0.000000    0.000000    6.059025

siesta: System type = molecule  

initatomlists: Number of atoms, orbitals, and projectors:      3    23    34

siesta: ******************** Simulation parameters ****************************
siesta:
siesta: The following are some of the parameters of the simulation.
siesta: A complete list of the parameters used, including default values,
siesta: can be found in file out.fdf
siesta:
redata: Spin configuration                          = none
redata: Number of spin components                   = 1
redata: Time-Reversal Symmetry                      = T
redata: Spin spiral                                 = F
redata: Long output                                 =   F
redata: Number of Atomic Species                    =        2
redata: Charge density info will appear in .RHO file
redata: Write Mulliken Pop.                         = NO
redata: Matel table size (NRTAB)                    =     1024
redata: Mesh Cutoff                                 =   120.0000 Ry
redata: Net charge of the system                    =     0.0000 |e|
redata: Min. number of SCF Iter                     =        0
redata: Max. number of SCF Iter                     =     1000
redata: SCF convergence failure will abort job
redata: SCF mix quantity                            = Hamiltonian
redata: Mix DM or H after convergence               =   F
redata: Recompute H after scf cycle                 =   F
redata: Mix DM in first SCF step                    =   T
redata: Write Pulay info on disk                    =   F
redata: New DM Occupancy tolerance                  = 0.000000000001
redata: No kicks to SCF
redata: DM Mixing Weight for Kicks                  =     0.5000
redata: Require Harris convergence for SCF          =   F
redata: Harris energy tolerance for SCF             =     0.000100 eV
redata: Require DM convergence for SCF              =   T
redata: DM tolerance for SCF                        =     0.000100
redata: Require EDM convergence for SCF             =   F
redata: EDM tolerance for SCF                       =     0.001000 eV
redata: Require H convergence for SCF               =   T
redata: Hamiltonian tolerance for SCF               =     0.001000 eV
redata: Require (free) Energy convergence for SCF   =   F
redata: (free) Energy tolerance for SCF             =     0.000100 eV
redata: Using Saved Data (generic)                  =   F
redata: Use continuation files for DM               =   F
redata: Neglect nonoverlap interactions             =   F
redata: Method of Calculation                       = Diagonalization
redata: Electronic Temperature                      =   299.9869 K
redata: Fix the spin of the system                  =   F
redata: Dynamics option                             = CG coord. optimization
redata: Variable cell                               =   F
redata: Use continuation files for CG               =   F
redata: Max atomic displ per move                   =     0.1058 Ang
redata: Maximum number of optimization moves        =      200
redata: Force tolerance                             =     0.0400 eV/Ang
mix.SCF: Pulay mixing                            = Pulay
mix.SCF:    Variant                              = stable
mix.SCF:    History steps                        = 5
mix.SCF:    Linear mixing weight                 =     0.300000
mix.SCF:    Mixing weight                        =     0.300000
mix.SCF:    SVD condition                        = 0.1000E-07
redata: Save all siesta data in one NC              =   F
redata: ***********************************************************************

%block SCF.Mixers
  Pulay
%endblock SCF.Mixers

%block SCF.Mixer.Pulay
  # Mixing method
  method pulay
  variant stable

  # Mixing options
  weight 0.3000
  weight.linear 0.3000
  history 5
%endblock SCF.Mixer.Pulay

DM_history_depth set to one: no extrapolation allowed by default for geometry relaxation
Size of DM history Fstack: 1
Total number of electrons:     8.000000
Total ionic charge:     8.000000

* ProcessorY, Blocksize:    2   3


* Orbital distribution balance (max,min):     3     2

 Kpoints in:            1 . Kpoints trimmed:            1

siesta: k-grid: Number of k-points =     1
siesta: k-grid: Cutoff (effective) =     3.030 Ang
siesta: k-grid: Supercell and displacements
siesta: k-grid:    1   0   0      0.000
siesta: k-grid:    0   1   0      0.000
siesta: k-grid:    0   0   1      0.000

diag: Algorithm                                     = D&C
diag: Parallel over k                               =   F
diag: Use parallel 2D distribution                  =   T
diag: Parallel block-size                           = 3
diag: Parallel distribution                         =     2 x     4
diag: Used triangular part                          = Lower
diag: Absolute tolerance                            =  0.100E-15
diag: Orthogonalization factor                      =  0.100E-05
diag: Memory factor                                 =  1.0000


ts: **************************************************************
ts: Save H and S matrices                           =    F
ts: Save DM and EDM matrices                        =    F
ts: Only save the overlap matrix S                  =    F
ts: **************************************************************

************************ Begin: TS CHECKS AND WARNINGS ************************
************************ End: TS CHECKS AND WARNINGS **************************


                     ====================================
                        Begin CG opt. move =      0

zmatrix: Z-matrix coordinates: (Ang ; deg )
zmatrix: (Fractional coordinates have been converted to cartesian)
molecule    1 (     3 atoms)
      0.00000000      0.00000000      0.00000000
      0.95699700     90.00000000     37.74391900
      0.95699700    104.00000000     90.00000000


Z-matrix Symbol Section -------
Variables
 HO1         0.95699699999999988     
 HO2         0.95699699999999988     
 HOH          104.00000000000014     
Constants
------------ End of Z-matrix Information

                     ====================================

outcell: Unit cell vectors (Ang):
        7.718081    0.000000    0.000000
        0.000000    6.151677    0.000000
        0.000000    0.000000    6.059025

outcell: Cell vector modules (Ang)   :    7.718081    6.151677    6.059025
outcell: Cell angles (23,13,12) (deg):     90.0000     90.0000     90.0000
outcell: Cell volume (Ang**3)        :    287.6773
<dSpData1D:S at geom step 0
  <sparsity:sparsity for geom step 0
    nrows_g=23 nrows=3 sparsity=.1304 nnzs=69, refcount: 7>
  <dData1D:(new from dSpData1D) n=69, refcount: 1>
refcount: 1>
new_DM -- step:     1
Initializing Density Matrix...
DM filled with atomic data:
<dSpData2D:DM initialized from atoms
  <sparsity:sparsity for geom step 0
    nrows_g=23 nrows=3 sparsity=.1304 nnzs=69, refcount: 8>
  <dData2D:DM n=69 m=1, refcount: 1>
refcount: 1>
No. of atoms with KB's overlaping orbs in proc 0. Max # of overlaps:       3      23
New grid distribution:   1
           1       1:   27    1:   12    1:    5
           2       1:   27    1:   12    6:   10
           3       1:   27    1:   12   11:   15
           4       1:   27    1:   12   16:   20
           5       1:   27   13:   24    1:    5
           6       1:   27   13:   24    6:   10
           7       1:   27   13:   24   11:   15
           8       1:   27   13:   24   16:   20

InitMesh: MESH =    54 x    48 x    40 =      103680
InitMesh: (bp) =    27 x    24 x    20 =       12960
InitMesh: Mesh cutoff (required, used) =   120.000   120.453 Ry
ExtMesh (bp) on 0 =    67 x    56 x    45 =      168840
New grid distribution:   2
           1       9:   27    8:   24    1:    7
           2       9:   27    1:    7    1:    7
           3       9:   27    1:    7    8:   20
           4       1:    8    1:    7    8:   20
           5       1:    8    8:   24    1:    7
           6       1:    8    1:    7    1:    7
           7       9:   27    8:   24    8:   20
           8       1:    8    8:   24    8:   20
New grid distribution:   3
           1      12:   27    1:    8    1:    9
           2       1:   11    1:    8   10:   20
           3       1:   11    9:   24    9:   20
           4      12:   27    1:    8   10:   20
           5      12:   27    9:   24    1:    8
           6       1:   11    9:   24    1:    8
           7      12:   27    9:   24    9:   20
           8       1:   11    1:    8    1:    9
Setting up quadratic distribution...
ExtMesh (bp) on 0 =    59 x    61 x    47 =      169153
PhiOnMesh: Number of (b)points on node 0 =                 2261
PhiOnMesh: nlist on node 0 =                 8567

stepf: Fermi-Dirac step function

siesta: Program's energy decomposition (eV):
siesta: Ebs     =       -81.892839
siesta: Eions   =       815.854478
siesta: Ena     =       174.499751
siesta: Ekin    =       381.390644
siesta: Enl     =       -70.368693
siesta: Eso     =         0.000000
siesta: Edftu   =         0.000000
siesta: DEna    =       -19.480970
siesta: DUscf   =         2.397719
siesta: DUext   =         0.000000
siesta: Exc     =      -120.361257
siesta: eta*DQ  =         0.000000
siesta: Emadel  =         0.000000
siesta: Emeta   =         0.000000
siesta: Emolmec =         0.000000
siesta: Ekinion =         0.000000
siesta: Eharris =      -469.215852
siesta: Etot    =      -467.777285
siesta: FreeEng =      -467.777285

        iscf     Eharris(eV)        E_KS(eV)     FreeEng(eV)     dDmax    Ef(eV) dHmax(eV)
   scf:    1     -469.215852     -467.777285     -467.777285  1.207072 -5.788510  7.908517
timer: Routine,Calls,Time,% = IterSCF        1       0.052   3.74
   scf:    2     -469.252373     -468.709824     -468.709824  0.097443 -4.213657  2.059096
   scf:    3     -468.762390     -468.752717     -468.752717  0.018487 -3.615130  0.353627
   scf:    4     -468.755560     -468.754808     -468.754808  0.029304 -3.363945  0.117507
   scf:    5     -468.754019     -468.754720     -468.754720  0.003131 -3.282694  0.127612
   scf:    6     -468.755122     -468.755038     -468.755038  0.001914 -3.315040  0.009134
   scf:    7     -468.755038     -468.755039     -468.755039  0.000157 -3.311295  0.005179
   scf:    8     -468.755040     -468.755039     -468.755039  0.000060 -3.312649  0.000033

SCF Convergence by DM+H criterion
max |DM_out - DM_in|         :     0.0000596373
max |H_out - H_in|      (eV) :     0.0000327732
SCF cycle converged after 8 iterations

Using DM_out to compute the final energy and forces
No. of atoms with KB's overlaping orbs in proc 0. Max # of overlaps:       3      23

siesta: E_KS(eV) =             -468.7550

siesta: E_KS - E_eggbox =      -468.7550

zmatrix: Atomic forces (eV/Ang ; eV/deg )
zmatrix: (No information if symbols are used)
molecule    1 (     3 atoms)
     1    0.000000    0.000000    0.000000
     2    0.000000    0.000000    0.000000
     3    0.000000    0.000000    0.000000


Variable forces (eV/Ang ; eV/deg )
 HO1         0.53505307830178173     
 HO2         0.53755270510593056     
 HOH          2.1317729964918284E-003

siesta: Atomic forces (eV/Ang):
----------------------------------------
   Tot   -0.001957    0.093067    0.000000
----------------------------------------
   Max    0.501140
   Res    0.287148    sqrt( Sum f_i^2 / 3N )
----------------------------------------
   Max    0.501140    constrained

Stress tensor Voigt[x,y,z,yz,xz,xy] (kbar):       -4.13       -1.12       -0.49        0.00        0.00        0.01
(Free)E + p*V (eV/cell)     -468.4116
Target enthalpy (eV/cell)     -468.7550

                     ====================================
                        Begin CG opt. move =      1

zmatrix: Z-matrix coordinates: (Ang ; deg )
zmatrix: (Fractional coordinates have been converted to cartesian)
molecule    1 (     3 atoms)
      0.00000000      0.00000000      0.00000000
      1.06234026     90.00000000     37.74391900
      1.06283240    108.92032971     90.00000000


Z-matrix Symbol Section -------
Variables
 HO1          1.0623402640658768     
 HO2          1.0628324000000000     
 HOH          108.92032970834768     
Constants
------------ End of Z-matrix Information

                     ====================================

outcell: Unit cell vectors (Ang):
        7.718081    0.000000    0.000000
        0.000000    6.151677    0.000000
        0.000000    0.000000    6.059025

outcell: Cell vector modules (Ang)   :    7.718081    6.151677    6.059025
outcell: Cell angles (23,13,12) (deg):     90.0000     90.0000     90.0000
outcell: Cell volume (Ang**3)        :    287.6773
<dSpData1D:S at geom step 1
  <sparsity:sparsity for geom step 1
    nrows_g=23 nrows=3 sparsity=.1304 nnzs=69, refcount: 7>
  <dData1D:(new from dSpData1D) n=69, refcount: 1>
refcount: 1>
new_DM -- step:     2
Re-using DM from previous geometries...
Number of DMs in history: 1
 DM extrapolation coefficients: 
1   1.00000
New DM after history re-use:
<dSpData2D:SpM extrapolated using coords
  <sparsity:sparsity for geom step 1
    nrows_g=23 nrows=3 sparsity=.1304 nnzs=69, refcount: 9>
  <dData2D:(temp array for extrapolation) n=69 m=1, refcount: 1>
refcount: 1>
Note: For starting DM, Qtot, Tr[D*S] =          8.00000000          7.87398711
No. of atoms with KB's overlaping orbs in proc 0. Max # of overlaps:       3      23
New grid distribution:   1
           1       1:   27    1:   12    1:    5
           2       1:   27    1:   12    6:   10
           3       1:   27    1:   12   11:   15
           4       1:   27    1:   12   16:   20
           5       1:   27   13:   24    1:    5
           6       1:   27   13:   24    6:   10
           7       1:   27   13:   24   11:   15
           8       1:   27   13:   24   16:   20

InitMesh: MESH =    54 x    48 x    40 =      103680
InitMesh: (bp) =    27 x    24 x    20 =       12960
InitMesh: Mesh cutoff (required, used) =   120.000   120.453 Ry
ExtMesh (bp) on 0 =    67 x    56 x    45 =      168840
New grid distribution:   2
           1       9:   27    8:   24    1:    7
           2       9:   27    1:    7    1:    7
           3       9:   27    1:    7    8:   20
           4       1:    8    1:    7    8:   20
           5       1:    8    8:   24    1:    7
           6       1:    8    1:    7    1:    7
           7       9:   27    8:   24    8:   20
           8       1:    8    8:   24    8:   20
New grid distribution:   3
           1       1:   12    9:   24    1:    8
           2       1:   12    1:    8   10:   20
           3       1:   12    9:   24    9:   20
           4      13:   27    1:    8   10:   20
           5      13:   27    9:   24    1:    8
           6      13:   27    1:    8    1:    9
           7      13:   27    9:   24    9:   20
           8       1:   12    1:    8    1:    9
Setting up quadratic distribution...
ExtMesh (bp) on 0 =    59 x    61 x    47 =      169153
PhiOnMesh: Number of (b)points on node 0 =                 2261
PhiOnMesh: nlist on node 0 =                 8706

        iscf     Eharris(eV)        E_KS(eV)     FreeEng(eV)     dDmax    Ef(eV) dHmax(eV)
   scf:    1     -469.481366     -468.344085     -468.344085  0.155075 -2.895112  1.145735
   scf:    2     -468.062023     -468.278183     -468.278183  0.066195 -3.497498  2.072296
   scf:    3     -468.408296     -468.375846     -468.375846  0.043539 -3.086172  0.097297
   scf:    4     -468.377004     -468.376515     -468.376515  0.004794 -3.083393  0.034089
   scf:    5     -468.376532     -468.376530     -468.376530  0.001992 -3.099967  0.017354
   scf:    6     -468.376531     -468.376535     -468.376535  0.000314 -3.096902  0.007642
   scf:    7     -468.376537     -468.376537     -468.376537  0.000131 -3.098309  0.000369
   scf:    8     -468.376537     -468.376537     -468.376537  0.000013 -3.098261  0.000133

SCF Convergence by DM+H criterion
max |DM_out - DM_in|         :     0.0000125333
max |H_out - H_in|      (eV) :     0.0001328105
SCF cycle converged after 8 iterations

Using DM_out to compute the final energy and forces
No. of atoms with KB's overlaping orbs in proc 0. Max # of overlaps:       3      23

siesta: E_KS(eV) =             -468.3765

zmatrix: Atomic forces (eV/Ang ; eV/deg )
zmatrix: (No information if symbols are used)
molecule    1 (     3 atoms)
     1    0.000000    0.000000    0.000000
     2    0.000000    0.000000    0.000000
     3    0.000000    0.000000    0.000000


Variable forces (eV/Ang ; eV/deg )
 HO1         -3.4080422313865282     
 HO2         -3.4349601802609406     
 HOH         -9.4852642125546997E-003

siesta: Atomic forces (eV/Ang):
----------------------------------------
   Tot    0.005045    0.103681    0.000000
----------------------------------------
   Max    3.241527
   Res    1.956981    sqrt( Sum f_i^2 / 3N )
----------------------------------------
   Max    3.241527    constrained

Stress tensor Voigt[x,y,z,yz,xz,xy] (kbar):       29.80       11.21       -0.51        0.00       -0.00        0.67
(Free)E + p*V (eV/cell)     -470.8007
Target enthalpy (eV/cell)     -468.3765

                     ====================================
                        Begin CG opt. move =      2

zmatrix: Z-matrix coordinates: (Ang ; deg )
zmatrix: (Fractional coordinates have been converted to cartesian)
molecule    1 (     3 atoms)
      0.00000000      0.00000000      0.00000000
      0.97159517     90.00000000     37.74391900
      0.97166337    104.68184548     90.00000000


Z-matrix Symbol Section -------
Variables
 HO1         0.97159517381894944     
 HO2         0.97166337263519620     
 HOH          104.68184547883476     
Constants
------------ End of Z-matrix Information

                     ====================================

outcell: Unit cell vectors (Ang):
        7.718081    0.000000    0.000000
        0.000000    6.151677    0.000000
        0.000000    0.000000    6.059025

outcell: Cell vector modules (Ang)   :    7.718081    6.151677    6.059025
outcell: Cell angles (23,13,12) (deg):     90.0000     90.0000     90.0000
outcell: Cell volume (Ang**3)        :    287.6773
<dSpData1D:S at geom step 2
  <sparsity:sparsity for geom step 2
    nrows_g=23 nrows=3 sparsity=.1304 nnzs=69, refcount: 7>
  <dData1D:(new from dSpData1D) n=69, refcount: 1>
refcount: 1>
new_DM -- step:     3
Re-using DM from previous geometries...
Number of DMs in history: 1
 DM extrapolation coefficients: 
1   1.00000
New DM after history re-use:
<dSpData2D:SpM extrapolated using coords
  <sparsity:sparsity for geom step 2
    nrows_g=23 nrows=3 sparsity=.1304 nnzs=69, refcount: 9>
  <dData2D:(temp array for extrapolation) n=69 m=1, refcount: 1>
refcount: 1>
Note: For starting DM, Qtot, Tr[D*S] =          8.00000000          8.10152762
No. of atoms with KB's overlaping orbs in proc 0. Max # of overlaps:       3      23
New grid distribution:   1
           1       1:   27    1:   12    1:    5
           2       1:   27    1:   12    6:   10
           3       1:   27    1:   12   11:   15
           4       1:   27    1:   12   16:   20
           5       1:   27   13:   24    1:    5
           6       1:   27   13:   24    6:   10
           7       1:   27   13:   24   11:   15
           8       1:   27   13:   24   16:   20

InitMesh: MESH =    54 x    48 x    40 =      103680
InitMesh: (bp) =    27 x    24 x    20 =       12960
InitMesh: Mesh cutoff (required, used) =   120.000   120.453 Ry
ExtMesh (bp) on 0 =    67 x    56 x    45 =      168840
New grid distribution:   2
           1       9:   27    8:   24    1:    7
           2       9:   27    1:    7    1:    7
           3       9:   27    1:    7    8:   20
           4       1:    8    1:    7    8:   20
           5       1:    8    8:   24    1:    7
           6       1:    8    1:    7    1:    7
           7       9:   27    8:   24    8:   20
           8       1:    8    8:   24    8:   20
New grid distribution:   3
           1      12:   27    1:    8    1:    9
           2       1:   11    1:    8   10:   20
           3       1:   11    9:   24    9:   20
           4      12:   27    1:    8   10:   20
           5      12:   27    9:   24    1:    8
           6       1:   11    9:   24    1:    8
           7      12:   27    9:   24    9:   20
           8       1:   11    1:    8    1:    9
Setting up quadratic distribution...
ExtMesh (bp) on 0 =    59 x    61 x    47 =      169153
PhiOnMesh: Number of (b)points on node 0 =                 2261
PhiOnMesh: nlist on node 0 =                 8579

        iscf     Eharris(eV)        E_KS(eV)     FreeEng(eV)     dDmax    Ef(eV) dHmax(eV)
   scf:    1     -467.806821     -468.722989     -468.722989  0.132477 -3.543330  1.346903
   scf:    2     -468.393671     -468.646593     -468.646593  0.059666 -2.789254  2.289822
   scf:    3     -468.799335     -468.760065     -468.760065  0.036975 -3.275621  0.065120
   scf:    4     -468.760612     -468.760383     -468.760383  0.002741 -3.267275  0.020740
   scf:    5     -468.760361     -468.760384     -468.760384  0.000858 -3.264589  0.024895
   scf:    6     -468.760402     -468.760397     -468.760397  0.000404 -3.259384  0.000582
   scf:    7     -468.760397     -468.760397     -468.760397  0.000025 -3.259176  0.000297

SCF Convergence by DM+H criterion
max |DM_out - DM_in|         :     0.0000247758
max |H_out - H_in|      (eV) :     0.0002969770
SCF cycle converged after 7 iterations

Using DM_out to compute the final energy and forces
No. of atoms with KB's overlaping orbs in proc 0. Max # of overlaps:       3      23

siesta: E_KS(eV) =             -468.7604

zmatrix: Atomic forces (eV/Ang ; eV/deg )
zmatrix: (No information if symbols are used)
molecule    1 (     3 atoms)
     1    0.000000    0.000000    0.000000
     2    0.000000    0.000000    0.000000
     3    0.000000    0.000000    0.000000


Variable forces (eV/Ang ; eV/deg )
 HO1        -0.21062020977813461     
 HO2        -0.21462666293156737     
 HOH          2.6291996941512627E-004

siesta: Atomic forces (eV/Ang):
----------------------------------------
   Tot    0.000329    0.096404    0.000000
----------------------------------------
   Max    0.380712
   Res    0.161883    sqrt( Sum f_i^2 / 3N )
----------------------------------------
   Max    0.380712    constrained

Stress tensor Voigt[x,y,z,yz,xz,xy] (kbar):        1.40        1.33       -0.49        0.00       -0.00       -0.01
(Free)E + p*V (eV/cell)     -468.8945
Target enthalpy (eV/cell)     -468.7604

cgvc_zmatrix: Finished line minimization    1.  Mean atomic displacement =    0.0236

                     ====================================
                        Begin CG opt. move =      3

zmatrix: Z-matrix coordinates: (Ang ; deg )
zmatrix: (Fractional coordinates have been converted to cartesian)
molecule    1 (     3 atoms)
      0.00000000      0.00000000      0.00000000
      0.97899439     90.00000000     37.74391900
      0.97869496    106.74664860     90.00000000


Z-matrix Symbol Section -------
Variables
 HO1         0.97899438658958482     
 HO2         0.97869495780758931     
 HOH          106.74664860242615     
Constants
------------ End of Z-matrix Information

                     ====================================

outcell: Unit cell vectors (Ang):
        7.718081    0.000000    0.000000
        0.000000    6.151677    0.000000
        0.000000    0.000000    6.059025

outcell: Cell vector modules (Ang)   :    7.718081    6.151677    6.059025
outcell: Cell angles (23,13,12) (deg):     90.0000     90.0000     90.0000
outcell: Cell volume (Ang**3)        :    287.6773
<dSpData1D:S at geom step 3
  <sparsity:sparsity for geom step 3
    nrows_g=23 nrows=3 sparsity=.1304 nnzs=69, refcount: 7>
  <dData1D:(new from dSpData1D) n=69, refcount: 1>
refcount: 1>
new_DM -- step:     4
Re-using DM from previous geometries...
Number of DMs in history: 1
 DM extrapolation coefficients: 
1   1.00000
New DM after history re-use:
<dSpData2D:SpM extrapolated using coords
  <sparsity:sparsity for geom step 3
    nrows_g=23 nrows=3 sparsity=.1304 nnzs=69, refcount: 9>
  <dData2D:(temp array for extrapolation) n=69 m=1, refcount: 1>
refcount: 1>
No. of atoms with KB's overlaping orbs in proc 0. Max # of overlaps:       3      23
New grid distribution:   1
           1       1:   27    1:   12    1:    5
           2       1:   27    1:   12    6:   10
           3       1:   27    1:   12   11:   15
           4       1:   27    1:   12   16:   20
           5       1:   27   13:   24    1:    5
           6       1:   27   13:   24    6:   10
           7       1:   27   13:   24   11:   15
           8       1:   27   13:   24   16:   20

InitMesh: MESH =    54 x    48 x    40 =      103680
InitMesh: (bp) =    27 x    24 x    20 =       12960
InitMesh: Mesh cutoff (required, used) =   120.000   120.453 Ry
ExtMesh (bp) on 0 =    67 x    56 x    45 =      168840
New grid distribution:   2
           1       9:   27    8:   24    1:    7
           2       9:   27    1:    7    1:    7
           3       9:   27    1:    7    8:   20
           4       1:    8    1:    7    8:   20
           5       1:    8    8:   24    1:    7
           6       1:    8    1:    7    1:    7
           7       9:   27    8:   24    8:   20
           8       1:    8    8:   24    8:   20
New grid distribution:   3
           1       1:   12    9:   24    1:    8
           2       1:   12    1:    8   10:   20
           3       1:   12    9:   24    9:   20
           4      13:   27    1:    8   10:   20
           5      13:   27    9:   24    1:    8
           6      13:   27    1:    8    1:    9
           7      13:   27    9:   24    9:   20
           8       1:   12    1:    8    1:    9
Setting up quadratic distribution...
ExtMesh (bp) on 0 =    59 x    61 x    47 =      169153
PhiOnMesh: Number of (b)points on node 0 =                 2261
PhiOnMesh: nlist on node 0 =                 8619

        iscf     Eharris(eV)        E_KS(eV)     FreeEng(eV)     dDmax    Ef(eV) dHmax(eV)
   scf:    1     -468.832096     -468.751594     -468.751594  0.026137 -3.169270  0.054470
   scf:    2     -468.751769     -468.751805     -468.751805  0.001841 -3.154648  0.036461
   scf:    3     -468.751949     -468.751895     -468.751895  0.000662 -3.160279  0.007962
   scf:    4     -468.751900     -468.751897     -468.751897  0.000313 -3.161281  0.001594
   scf:    5     -468.751898     -468.751898     -468.751898  0.000044 -3.161693  0.000370

SCF Convergence by DM+H criterion
max |DM_out - DM_in|         :     0.0000439805
max |H_out - H_in|      (eV) :     0.0003697510
SCF cycle converged after 5 iterations

Using DM_out to compute the final energy and forces
No. of atoms with KB's overlaping orbs in proc 0. Max # of overlaps:       3      23

siesta: E_KS(eV) =             -468.7519

zmatrix: Atomic forces (eV/Ang ; eV/deg )
zmatrix: (No information if symbols are used)
molecule    1 (     3 atoms)
     1    0.000000    0.000000    0.000000
     2    0.000000    0.000000    0.000000
     3    0.000000    0.000000    0.000000


Variable forces (eV/Ang ; eV/deg )
 HO1        -0.61202086350330598     
 HO2        -0.59930015232788347     
 HOH         -2.7154477521574112E-003

siesta: Atomic forces (eV/Ang):
----------------------------------------
   Tot   -0.001296    0.097471    0.000000
----------------------------------------
   Max    0.582145
   Res    0.350045    sqrt( Sum f_i^2 / 3N )
----------------------------------------
   Max    0.582145    constrained

Stress tensor Voigt[x,y,z,yz,xz,xy] (kbar):        5.12        1.89       -0.49        0.00       -0.00        0.10
(Free)E + p*V (eV/cell)     -469.1421
Target enthalpy (eV/cell)     -468.7519

                     ====================================
                        Begin CG opt. move =      4

zmatrix: Z-matrix coordinates: (Ang ; deg )
zmatrix: (Fractional coordinates have been converted to cartesian)
molecule    1 (     3 atoms)
      0.00000000      0.00000000      0.00000000
      0.97001535     90.00000000     37.74391900
      0.97016204    104.24098429     90.00000000


Z-matrix Symbol Section -------
Variables
 HO1         0.97001534970206527     
 HO2         0.97016204159098585     
 HOH          104.24098428557198     
Constants
------------ End of Z-matrix Information

                     ====================================

outcell: Unit cell vectors (Ang):
        7.718081    0.000000    0.000000
        0.000000    6.151677    0.000000
        0.000000    0.000000    6.059025

outcell: Cell vector modules (Ang)   :    7.718081    6.151677    6.059025
outcell: Cell angles (23,13,12) (deg):     90.0000     90.0000     90.0000
outcell: Cell volume (Ang**3)        :    287.6773
<dSpData1D:S at geom step 4
  <sparsity:sparsity for geom step 4
    nrows_g=23 nrows=3 sparsity=.1304 nnzs=69, refcount: 7>
  <dData1D:(new from dSpData1D) n=69, refcount: 1>
refcount: 1>
new_DM -- step:     5
Re-using DM from previous geometries...
Number of DMs in history: 1
 DM extrapolation coefficients: 
1   1.00000
New DM after history re-use:
<dSpData2D:SpM extrapolated using coords
  <sparsity:sparsity for geom step 4
    nrows_g=23 nrows=3 sparsity=.1304 nnzs=69, refcount: 9>
  <dData2D:(temp array for extrapolation) n=69 m=1, refcount: 1>
refcount: 1>
No. of atoms with KB's overlaping orbs in proc 0. Max # of overlaps:       3      23
New grid distribution:   1
           1       1:   27    1:   12    1:    5
           2       1:   27    1:   12    6:   10
           3       1:   27    1:   12   11:   15
           4       1:   27    1:   12   16:   20
           5       1:   27   13:   24    1:    5
           6       1:   27   13:   24    6:   10
           7       1:   27   13:   24   11:   15
           8       1:   27   13:   24   16:   20

InitMesh: MESH =    54 x    48 x    40 =      103680
InitMesh: (bp) =    27 x    24 x    20 =       12960
InitMesh: Mesh cutoff (required, used) =   120.000   120.453 Ry
ExtMesh (bp) on 0 =    67 x    56 x    45 =      168840
New grid distribution:   2
           1       9:   27    8:   24    1:    7
           2       9:   27    1:    7    1:    7
           3       9:   27    1:    7    8:   20
           4       1:    8    1:    7    8:   20
           5       1:    8    8:   24    1:    7
           6       1:    8    1:    7    1:    7
           7       9:   27    8:   24    8:   20
           8       1:    8    8:   24    8:   20
New grid distribution:   3
           1      12:   27    1:    8    1:    9
           2       1:   11    1:    8   10:   20
           3       1:   11    9:   24    9:   20
           4      12:   27    1:    8   10:   20
           5      12:   27    9:   24    1:    8
           6       1:   11    9:   24    1:    8
           7      12:   27    9:   24    9:   20
           8       1:   11    1:    8    1:    9
Setting up quadratic distribution...
ExtMesh (bp) on 0 =    59 x    61 x    47 =      169153
PhiOnMesh: Number of (b)points on node 0 =                 2261
PhiOnMesh: nlist on node 0 =                 8570

        iscf     Eharris(eV)        E_KS(eV)     FreeEng(eV)     dDmax    Ef(eV) dHmax(eV)
   scf:    1     -468.664088     -468.760214     -468.760214  0.031726 -3.274904  0.069940
   scf:    2     -468.760431     -468.760510     -468.760510  0.002257 -3.287271  0.044571
   scf:    3     -468.760735     -468.760652     -468.760652  0.000789 -3.283452  0.009306
   scf:    4     -468.760659     -468.760655     -468.760655  0.000254 -3.282989  0.004199
   scf:    5     -468.760657     -468.760656     -468.760656  0.000181 -3.282014  0.000532
   scf:    6     -468.760656     -468.760656     -468.760656  0.000018 -3.281857  0.000061

SCF Convergence by DM+H criterion
max |DM_out - DM_in|         :     0.0000177860
max |H_out - H_in|      (eV) :     0.0000614221
SCF cycle converged after 6 iterations

Using DM_out to compute the final energy and forces
No. of atoms with KB's overlaping orbs in proc 0. Max # of overlaps:       3      23

siesta: E_KS(eV) =             -468.7607

zmatrix: Atomic forces (eV/Ang ; eV/deg )
zmatrix: (No information if symbols are used)
molecule    1 (     3 atoms)
     1    0.000000    0.000000    0.000000
     2    0.000000    0.000000    0.000000
     3    0.000000    0.000000    0.000000


Variable forces (eV/Ang ; eV/deg )
 HO1        -0.12196107659204233     
 HO2        -0.12831168352721983     
 HOH          9.2308134978101315E-004

siesta: Atomic forces (eV/Ang):
----------------------------------------
   Tot   -0.000524    0.096891    0.000000
----------------------------------------
   Max    0.336727
   Res    0.129403    sqrt( Sum f_i^2 / 3N )
----------------------------------------
   Max    0.336727    constrained

Stress tensor Voigt[x,y,z,yz,xz,xy] (kbar):        0.61        1.19       -0.49        0.00        0.00       -0.02
(Free)E + p*V (eV/cell)     -468.8387
Target enthalpy (eV/cell)     -468.7607

cgvc_zmatrix: Finished line minimization    2.  Mean atomic displacement =    0.0050

                     ====================================
                        Begin CG opt. move =      5

zmatrix: Z-matrix coordinates: (Ang ; deg )
zmatrix: (Fractional coordinates have been converted to cartesian)
molecule    1 (     3 atoms)
      0.00000000      0.00000000      0.00000000
      0.96705637     90.00000000     37.74391900
      0.96706965    104.42884762     90.00000000


Z-matrix Symbol Section -------
Variables
 HO1         0.96705637459012617     
 HO2         0.96706965254217292     
 HOH          104.42884761738316     
Constants
------------ End of Z-matrix Information

                     ====================================

outcell: Unit cell vectors (Ang):
        7.718081    0.000000    0.000000
        0.000000    6.151677    0.000000
        0.000000    0.000000    6.059025

outcell: Cell vector modules (Ang)   :    7.718081    6.151677    6.059025
outcell: Cell angles (23,13,12) (deg):     90.0000     90.0000     90.0000
outcell: Cell volume (Ang**3)        :    287.6773
<dSpData1D:S at geom step 5
  <sparsity:sparsity for geom step 5
    nrows_g=23 nrows=3 sparsity=.1304 nnzs=69, refcount: 7>
  <dData1D:(new from dSpData1D) n=69, refcount: 1>
refcount: 1>
new_DM -- step:     6
Re-using DM from previous geometries...
Number of DMs in history: 1
 DM extrapolation coefficients: 
1   1.00000
New DM after history re-use:
<dSpData2D:SpM extrapolated using coords
  <sparsity:sparsity for geom step 5
    nrows_g=23 nrows=3 sparsity=.1304 nnzs=69, refcount: 9>
  <dData2D:(temp array for extrapolation) n=69 m=1, refcount: 1>
refcount: 1>
No. of atoms with KB's overlaping orbs in proc 0. Max # of overlaps:       3      23
New grid distribution:   1
           1       1:   27    1:   12    1:    5
           2       1:   27    1:   12    6:   10
           3       1:   27    1:   12   11:   15
           4       1:   27    1:   12   16:   20
           5       1:   27   13:   24    1:    5
           6       1:   27   13:   24    6:   10
           7       1:   27   13:   24   11:   15
           8       1:   27   13:   24   16:   20

InitMesh: MESH =    54 x    48 x    40 =      103680
InitMesh: (bp) =    27 x    24 x    20 =       12960
InitMesh: Mesh cutoff (required, used) =   120.000   120.453 Ry
ExtMesh (bp) on 0 =    67 x    56 x    45 =      168840
New grid distribution:   2
           1       9:   27    8:   24    1:    7
           2       9:   27    1:    7    1:    7
           3       9:   27    1:    7    8:   20
           4       1:    8    1:    7    8:   20
           5       1:    8    8:   24    1:    7
           6       1:    8    1:    7    1:    7
           7       9:   27    8:   24    8:   20
           8       1:    8    8:   24    8:   20
New grid distribution:   3
           1      12:   27    1:    8    1:    9
           2       1:   11    1:    8   10:   20
           3       1:   11    9:   24    9:   20
           4      12:   27    1:    8   10:   20
           5      12:   27    9:   24    1:    8
           6       1:   11    9:   24    1:    8
           7      12:   27    9:   24    9:   20
           8       1:   11    1:    8    1:    9
Setting up quadratic distribution...
ExtMesh (bp) on 0 =    59 x    61 x    47 =      169153
PhiOnMesh: Number of (b)points on node 0 =                 2261
PhiOnMesh: nlist on node 0 =                 8567

        iscf     Eharris(eV)        E_KS(eV)     FreeEng(eV)     dDmax    Ef(eV) dHmax(eV)
   scf:    1     -468.726956     -468.761110     -468.761110  0.005272 -3.289919  0.053079
   scf:    2     -468.760624     -468.760997     -468.760997  0.002572 -3.257516  0.089252
   scf:    3     -468.761223     -468.761163     -468.761163  0.001597 -3.278025  0.001549
   scf:    4     -468.761163     -468.761163     -468.761163  0.000096 -3.277541  0.000736

SCF Convergence by DM+H criterion
max |DM_out - DM_in|         :     0.0000964714
max |H_out - H_in|      (eV) :     0.0007361231
SCF cycle converged after 4 iterations

Using DM_out to compute the final energy and forces
No. of atoms with KB's overlaping orbs in proc 0. Max # of overlaps:       3      23

siesta: E_KS(eV) =             -468.7612

zmatrix: Atomic forces (eV/Ang ; eV/deg )
zmatrix: (No information if symbols are used)
molecule    1 (     3 atoms)
     1    0.000000    0.000000    0.000000
     2    0.000000    0.000000    0.000000
     3    0.000000    0.000000    0.000000


Variable forces (eV/Ang ; eV/deg )
 HO1          1.4380440254407392E-002
 HO2          1.4061015682798711E-002
 HOH          8.8635700471854787E-004

siesta: Atomic forces (eV/Ang):
----------------------------------------
   Tot   -0.000196    0.095692    0.000000
----------------------------------------
   Max    0.161237
   Res    0.059547    sqrt( Sum f_i^2 / 3N )
----------------------------------------
   Max    0.161237    constrained

Stress tensor Voigt[x,y,z,yz,xz,xy] (kbar):       -0.32        0.60       -0.49        0.00        0.00       -0.00
(Free)E + p*V (eV/cell)     -468.7492
Target enthalpy (eV/cell)     -468.7612

                     ====================================
                        Begin CG opt. move =      6

zmatrix: Z-matrix coordinates: (Ang ; deg )
zmatrix: (Fractional coordinates have been converted to cartesian)
molecule    1 (     3 atoms)
      0.00000000      0.00000000      0.00000000
      0.96232201     90.00000000     37.74391900
      0.96212183    104.72942895     90.00000000


Z-matrix Symbol Section -------
Variables
 HO1         0.96232201441102383     
 HO2         0.96212183006407226     
 HOH          104.72942894828103     
Constants
------------ End of Z-matrix Information

                     ====================================

outcell: Unit cell vectors (Ang):
        7.718081    0.000000    0.000000
        0.000000    6.151677    0.000000
        0.000000    0.000000    6.059025

outcell: Cell vector modules (Ang)   :    7.718081    6.151677    6.059025
outcell: Cell angles (23,13,12) (deg):     90.0000     90.0000     90.0000
outcell: Cell volume (Ang**3)        :    287.6773
<dSpData1D:S at geom step 6
  <sparsity:sparsity for geom step 6
    nrows_g=23 nrows=3 sparsity=.1304 nnzs=69, refcount: 7>
  <dData1D:(new from dSpData1D) n=69, refcount: 1>
refcount: 1>
new_DM -- step:     7
Re-using DM from previous geometries...
Number of DMs in history: 1
 DM extrapolation coefficients: 
1   1.00000
New DM after history re-use:
<dSpData2D:SpM extrapolated using coords
  <sparsity:sparsity for geom step 6
    nrows_g=23 nrows=3 sparsity=.1304 nnzs=69, refcount: 9>
  <dData2D:(temp array for extrapolation) n=69 m=1, refcount: 1>
refcount: 1>
No. of atoms with KB's overlaping orbs in proc 0. Max # of overlaps:       3      23
New grid distribution:   1
           1       1:   27    1:   12    1:    5
           2       1:   27    1:   12    6:   10
           3       1:   27    1:   12   11:   15
           4       1:   27    1:   12   16:   20
           5       1:   27   13:   24    1:    5
           6       1:   27   13:   24    6:   10
           7       1:   27   13:   24   11:   15
           8       1:   27   13:   24   16:   20

InitMesh: MESH =    54 x    48 x    40 =      103680
InitMesh: (bp) =    27 x    24 x    20 =       12960
InitMesh: Mesh cutoff (required, used) =   120.000   120.453 Ry
ExtMesh (bp) on 0 =    67 x    56 x    45 =      168840
New grid distribution:   2
           1       9:   27    8:   24    1:    7
           2       9:   27    1:    7    1:    7
           3       9:   27    1:    7    8:   20
           4       1:    8    1:    7    8:   20
           5       1:    8    8:   24    1:    7
           6       1:    8    1:    7    1:    7
           7       9:   27    8:   24    8:   20
           8       1:    8    8:   24    8:   20
New grid distribution:   3
           1      12:   27    1:    8    1:    9
           2       1:   11    1:    8   10:   20
           3       1:   11    9:   24    9:   20
           4      12:   27    1:    8   10:   20
           5      12:   27    9:   24    1:    8
           6       1:   11    9:   24    1:    8
           7      12:   27    9:   24    9:   20
           8       1:   11    1:    8    1:    9
Setting up quadratic distribution...
ExtMesh (bp) on 0 =    59 x    61 x    47 =      169153
PhiOnMesh: Number of (b)points on node 0 =                 2261
PhiOnMesh: nlist on node 0 =                 8573

        iscf     Eharris(eV)        E_KS(eV)     FreeEng(eV)     dDmax    Ef(eV) dHmax(eV)
   scf:    1     -468.705040     -468.760044     -468.760044  0.008452 -3.291115  0.084504
   scf:    2     -468.758835     -468.759763     -468.759763  0.004056 -3.239387  0.141223
   scf:    3     -468.760327     -468.760178     -468.760178  0.002509 -3.272030  0.002438
   scf:    4     -468.760179     -468.760179     -468.760179  0.000152 -3.271241  0.001161
   scf:    5     -468.760179     -468.760179     -468.760179  0.000050 -3.270806  0.000096

SCF Convergence by DM+H criterion
max |DM_out - DM_in|         :     0.0000504587
max |H_out - H_in|      (eV) :     0.0000964080
SCF cycle converged after 5 iterations

Using DM_out to compute the final energy and forces
No. of atoms with KB's overlaping orbs in proc 0. Max # of overlaps:       3      23

siesta: E_KS(eV) =             -468.7602

zmatrix: Atomic forces (eV/Ang ; eV/deg )
zmatrix: (No information if symbols are used)
molecule    1 (     3 atoms)
     1    0.000000    0.000000    0.000000
     2    0.000000    0.000000    0.000000
     3    0.000000    0.000000    0.000000


Variable forces (eV/Ang ; eV/deg )
 HO1         0.23872239152054689     
 HO2         0.24836002204981111     
 HOH          8.2337193442657771E-004

siesta: Atomic forces (eV/Ang):
----------------------------------------
   Tot    0.000628    0.093747    0.000000
----------------------------------------
   Max    0.226834
   Res    0.124463    sqrt( Sum f_i^2 / 3N )
----------------------------------------
   Max    0.226834    constrained

Stress tensor Voigt[x,y,z,yz,xz,xy] (kbar):       -1.83       -0.34       -0.49        0.00       -0.00        0.02
(Free)E + p*V (eV/cell)     -468.6011
Target enthalpy (eV/cell)     -468.7602

                     ====================================
                        Begin CG opt. move =      7

zmatrix: Z-matrix coordinates: (Ang ; deg )
zmatrix: (Fractional coordinates have been converted to cartesian)
molecule    1 (     3 atoms)
      0.00000000      0.00000000      0.00000000
      0.96678425     90.00000000     37.74391900
      0.96678526    104.44612440     90.00000000


Z-matrix Symbol Section -------
Variables
 HO1         0.96678425346178787     
 HO2         0.96678526204702198     
 HOH          104.44612440407175     
Constants
------------ End of Z-matrix Information

                     ====================================

outcell: Unit cell vectors (Ang):
        7.718081    0.000000    0.000000
        0.000000    6.151677    0.000000
        0.000000    0.000000    6.059025

outcell: Cell vector modules (Ang)   :    7.718081    6.151677    6.059025
outcell: Cell angles (23,13,12) (deg):     90.0000     90.0000     90.0000
outcell: Cell volume (Ang**3)        :    287.6773
<dSpData1D:S at geom step 7
  <sparsity:sparsity for geom step 7
    nrows_g=23 nrows=3 sparsity=.1304 nnzs=69, refcount: 7>
  <dData1D:(new from dSpData1D) n=69, refcount: 1>
refcount: 1>
new_DM -- step:     8
Re-using DM from previous geometries...
Number of DMs in history: 1
 DM extrapolation coefficients: 
1   1.00000
New DM after history re-use:
<dSpData2D:SpM extrapolated using coords
  <sparsity:sparsity for geom step 7
    nrows_g=23 nrows=3 sparsity=.1304 nnzs=69, refcount: 9>
  <dData2D:(temp array for extrapolation) n=69 m=1, refcount: 1>
refcount: 1>
No. of atoms with KB's overlaping orbs in proc 0. Max # of overlaps:       3      23
New grid distribution:   1
           1       1:   27    1:   12    1:    5
           2       1:   27    1:   12    6:   10
           3       1:   27    1:   12   11:   15
           4       1:   27    1:   12   16:   20
           5       1:   27   13:   24    1:    5
           6       1:   27   13:   24    6:   10
           7       1:   27   13:   24   11:   15
           8       1:   27   13:   24   16:   20

InitMesh: MESH =    54 x    48 x    40 =      103680
InitMesh: (bp) =    27 x    24 x    20 =       12960
InitMesh: Mesh cutoff (required, used) =   120.000   120.453 Ry
ExtMesh (bp) on 0 =    67 x    56 x    45 =      168840
New grid distribution:   2
           1       9:   27    8:   24    1:    7
           2       9:   27    1:    7    1:    7
           3       9:   27    1:    7    8:   20
           4       1:    8    1:    7    8:   20
           5       1:    8    8:   24    1:    7
           6       1:    8    1:    7    1:    7
           7       9:   27    8:   24    8:   20
           8       1:    8    8:   24    8:   20
New grid distribution:   3
           1      12:   27    1:    8    1:    9
           2       1:   11    1:    8   10:   20
           3       1:   11    9:   24    9:   20
           4      12:   27    1:    8   10:   20
           5      12:   27    9:   24    1:    8
           6       1:   11    9:   24    1:    8
           7      12:   27    9:   24    9:   20
           8       1:   11    1:    8    1:    9
Setting up quadratic distribution...
ExtMesh (bp) on 0 =    59 x    61 x    47 =      169153
PhiOnMesh: Number of (b)points on node 0 =                 2261
PhiOnMesh: nlist on node 0 =                 8567

        iscf     Eharris(eV)        E_KS(eV)     FreeEng(eV)     dDmax    Ef(eV) dHmax(eV)
   scf:    1     -468.813094     -468.761048     -468.761048  0.008007 -3.257797  0.079410
   scf:    2     -468.759967     -468.760796     -468.760796  0.003870 -3.306384  0.133277
   scf:    3     -468.761300     -468.761167     -468.761167  0.002403 -3.275656  0.002261
   scf:    4     -468.761168     -468.761167     -468.761167  0.000146 -3.276369  0.001128
   scf:    5     -468.761167     -468.761167     -468.761167  0.000053 -3.276834  0.000088

SCF Convergence by DM+H criterion
max |DM_out - DM_in|         :     0.0000532831
max |H_out - H_in|      (eV) :     0.0000877631
SCF cycle converged after 5 iterations

Using DM_out to compute the final energy and forces
No. of atoms with KB's overlaping orbs in proc 0. Max # of overlaps:       3      23

siesta: E_KS(eV) =             -468.7612

zmatrix: Atomic forces (eV/Ang ; eV/deg )
zmatrix: (No information if symbols are used)
molecule    1 (     3 atoms)
     1    0.000000    0.000000    0.000000
     2    0.000000    0.000000    0.000000
     3    0.000000    0.000000    0.000000


Variable forces (eV/Ang ; eV/deg )
 HO1          2.7087310812016707E-002
 HO2          2.7285174417034801E-002
 HOH          8.8150694043997275E-004

siesta: Atomic forces (eV/Ang):
----------------------------------------
   Tot   -0.000162    0.095569    0.000000
----------------------------------------
   Max    0.144830
   Res    0.055688    sqrt( Sum f_i^2 / 3N )
----------------------------------------
   Max    0.144830    constrained

Stress tensor Voigt[x,y,z,yz,xz,xy] (kbar):       -0.40        0.55       -0.49        0.00        0.00        0.00
(Free)E + p*V (eV/cell)     -468.7408
Target enthalpy (eV/cell)     -468.7612

cgvc_zmatrix: Finished line minimization    3.  Mean atomic displacement =    0.0055

                     ====================================
                        Begin CG opt. move =      8

zmatrix: Z-matrix coordinates: (Ang ; deg )
zmatrix: (Fractional coordinates have been converted to cartesian)
molecule    1 (     3 atoms)
      0.00000000      0.00000000      0.00000000
      0.96688525     90.00000000     37.74391900
      0.96684392    104.99200563     90.00000000


Z-matrix Symbol Section -------
Variables
 HO1         0.96688525155529892     
 HO2         0.96684392050129953     
 HOH          104.99200563470717     
Constants
------------ End of Z-matrix Information

                     ====================================

outcell: Unit cell vectors (Ang):
        7.718081    0.000000    0.000000
        0.000000    6.151677    0.000000
        0.000000    0.000000    6.059025

outcell: Cell vector modules (Ang)   :    7.718081    6.151677    6.059025
outcell: Cell angles (23,13,12) (deg):     90.0000     90.0000     90.0000
outcell: Cell volume (Ang**3)        :    287.6773
<dSpData1D:S at geom step 8
  <sparsity:sparsity for geom step 8
    nrows_g=23 nrows=3 sparsity=.1304 nnzs=69, refcount: 7>
  <dData1D:(new from dSpData1D) n=69, refcount: 1>
refcount: 1>
new_DM -- step:     9
Re-using DM from previous geometries...
Number of DMs in history: 1
 DM extrapolation coefficients: 
1   1.00000
New DM after history re-use:
<dSpData2D:SpM extrapolated using coords
  <sparsity:sparsity for geom step 8
    nrows_g=23 nrows=3 sparsity=.1304 nnzs=69, refcount: 9>
  <dData2D:(temp array for extrapolation) n=69 m=1, refcount: 1>
refcount: 1>
No. of atoms with KB's overlaping orbs in proc 0. Max # of overlaps:       3      23
New grid distribution:   1
           1       1:   27    1:   12    1:    5
           2       1:   27    1:   12    6:   10
           3       1:   27    1:   12   11:   15
           4       1:   27    1:   12   16:   20
           5       1:   27   13:   24    1:    5
           6       1:   27   13:   24    6:   10
           7       1:   27   13:   24   11:   15
           8       1:   27   13:   24   16:   20

InitMesh: MESH =    54 x    48 x    40 =      103680
InitMesh: (bp) =    27 x    24 x    20 =       12960
InitMesh: Mesh cutoff (required, used) =   120.000   120.453 Ry
ExtMesh (bp) on 0 =    67 x    56 x    45 =      168840
New grid distribution:   2
           1       9:   27    8:   24    1:    7
           2       9:   27    1:    7    1:    7
           3       9:   27    1:    7    8:   20
           4       1:    8    1:    7    8:   20
           5       1:    8    8:   24    1:    7
           6       1:    8    1:    7    1:    7
           7       9:   27    8:   24    8:   20
           8       1:    8    8:   24    8:   20
New grid distribution:   3
           1      12:   27    1:    8    1:    9
           2       1:   11    1:    8   10:   20
           3       1:   11    9:   24    9:   20
           4      12:   27    1:    8   10:   20
           5      12:   27    9:   24    1:    8
           6       1:   11    9:   24    1:    8
           7      12:   27    9:   24    9:   20
           8       1:   11    1:    8    1:    9
Setting up quadratic distribution...
ExtMesh (bp) on 0 =    59 x    61 x    47 =      169153
PhiOnMesh: Number of (b)points on node 0 =                 2261
PhiOnMesh: nlist on node 0 =                 8583

        iscf     Eharris(eV)        E_KS(eV)     FreeEng(eV)     dDmax    Ef(eV) dHmax(eV)
   scf:    1     -468.762841     -468.761432     -468.761432  0.005039 -3.259820  0.030765
   scf:    2     -468.761335     -468.761418     -468.761418  0.001332 -3.240786  0.043494
   scf:    3     -468.761473     -468.761459     -468.761459  0.000809 -3.252208  0.002428
   scf:    4     -468.761460     -468.761459     -468.761459  0.000083 -3.251863  0.000812

SCF Convergence by DM+H criterion
max |DM_out - DM_in|         :     0.0000828613
max |H_out - H_in|      (eV) :     0.0008123928
SCF cycle converged after 4 iterations

Using DM_out to compute the final energy and forces
No. of atoms with KB's overlaping orbs in proc 0. Max # of overlaps:       3      23

siesta: E_KS(eV) =             -468.7615

zmatrix: Atomic forces (eV/Ang ; eV/deg )
zmatrix: (No information if symbols are used)
molecule    1 (     3 atoms)
     1    0.000000    0.000000    0.000000
     2    0.000000    0.000000    0.000000
     3    0.000000    0.000000    0.000000


Variable forces (eV/Ang ; eV/deg )
 HO1          5.2743624182057568E-003
 HO2          5.6028538201845736E-003
 HOH          1.9194813633911830E-004

siesta: Atomic forces (eV/Ang):
----------------------------------------
   Tot    0.001090    0.094803    0.000000
----------------------------------------
   Max    0.106166
   Res    0.035884    sqrt( Sum f_i^2 / 3N )
----------------------------------------
   Max    0.106166    constrained

Stress tensor Voigt[x,y,z,yz,xz,xy] (kbar):       -0.05        0.42       -0.49        0.00       -0.00        0.00
(Free)E + p*V (eV/cell)     -468.7544
Target enthalpy (eV/cell)     -468.7615

                     ====================================
                        Begin CG opt. move =      9

zmatrix: Z-matrix coordinates: (Ang ; deg )
zmatrix: (Fractional coordinates have been converted to cartesian)
molecule    1 (     3 atoms)
      0.00000000      0.00000000      0.00000000
      0.96704685     90.00000000     37.74391900
      0.96693777    105.86541560     90.00000000


Z-matrix Symbol Section -------
Variables
 HO1         0.96704684850491662     
 HO2         0.96693777402814363     
 HOH          105.86541560372383     
Constants
------------ End of Z-matrix Information

                     ====================================

outcell: Unit cell vectors (Ang):
        7.718081    0.000000    0.000000
        0.000000    6.151677    0.000000
        0.000000    0.000000    6.059025

outcell: Cell vector modules (Ang)   :    7.718081    6.151677    6.059025
outcell: Cell angles (23,13,12) (deg):     90.0000     90.0000     90.0000
outcell: Cell volume (Ang**3)        :    287.6773
<dSpData1D:S at geom step 9
  <sparsity:sparsity for geom step 9
    nrows_g=23 nrows=3 sparsity=.1304 nnzs=69, refcount: 7>
  <dData1D:(new from dSpData1D) n=69, refcount: 1>
refcount: 1>
new_DM -- step:    10
Re-using DM from previous geometries...
Number of DMs in history: 1
 DM extrapolation coefficients: 
1   1.00000
New DM after history re-use:
<dSpData2D:SpM extrapolated using coords
  <sparsity:sparsity for geom step 9
    nrows_g=23 nrows=3 sparsity=.1304 nnzs=69, refcount: 9>
  <dData2D:(temp array for extrapolation) n=69 m=1, refcount: 1>
refcount: 1>
No. of atoms with KB's overlaping orbs in proc 0. Max # of overlaps:       3      23
New grid distribution:   1
           1       1:   27    1:   12    1:    5
           2       1:   27    1:   12    6:   10
           3       1:   27    1:   12   11:   15
           4       1:   27    1:   12   16:   20
           5       1:   27   13:   24    1:    5
           6       1:   27   13:   24    6:   10
           7       1:   27   13:   24   11:   15
           8       1:   27   13:   24   16:   20

InitMesh: MESH =    54 x    48 x    40 =      103680
InitMesh: (bp) =    27 x    24 x    20 =       12960
InitMesh: Mesh cutoff (required, used) =   120.000   120.453 Ry
ExtMesh (bp) on 0 =    67 x    56 x    45 =      168840
New grid distribution:   2
           1       9:   27    8:   24    1:    7
           2       9:   27    1:    7    1:    7
           3       9:   27    1:    7    8:   20
           4       1:    8    1:    7    8:   20
           5       1:    8    8:   24    1:    7
           6       1:    8    1:    7    1:    7
           7       9:   27    8:   24    8:   20
           8       1:    8    8:   24    8:   20
New grid distribution:   3
           1      12:   27    1:    8    1:    9
           2       1:   11    1:    8   10:   20
           3       1:   11    9:   24    9:   20
           4      12:   27    1:    8   10:   20
           5      12:   27    9:   24    1:    8
           6       1:   11    9:   24    1:    8
           7      12:   27    9:   24    9:   20
           8       1:   11    1:    8    1:    9
Setting up quadratic distribution...
ExtMesh (bp) on 0 =    59 x    61 x    47 =      169153
PhiOnMesh: Number of (b)points on node 0 =                 2261
PhiOnMesh: nlist on node 0 =                 8602

        iscf     Eharris(eV)        E_KS(eV)     FreeEng(eV)     dDmax    Ef(eV) dHmax(eV)
   scf:    1     -468.762679     -468.761061     -468.761061  0.008071 -3.226639  0.048385
   scf:    2     -468.760820     -468.761027     -468.761027  0.002090 -3.196612  0.068517
   scf:    3     -468.761164     -468.761127     -468.761127  0.001271 -3.214630  0.003823
   scf:    4     -468.761131     -468.761129     -468.761129  0.000132 -3.214100  0.001309
   scf:    5     -468.761129     -468.761129     -468.761129  0.000061 -3.214169  0.000126

SCF Convergence by DM+H criterion
max |DM_out - DM_in|         :     0.0000611447
max |H_out - H_in|      (eV) :     0.0001262996
SCF cycle converged after 5 iterations

Using DM_out to compute the final energy and forces
No. of atoms with KB's overlaping orbs in proc 0. Max # of overlaps:       3      23

siesta: E_KS(eV) =             -468.7611

zmatrix: Atomic forces (eV/Ang ; eV/deg )
zmatrix: (No information if symbols are used)
molecule    1 (     3 atoms)
     1    0.000000    0.000000    0.000000
     2    0.000000    0.000000    0.000000
     3    0.000000    0.000000    0.000000


Variable forces (eV/Ang ; eV/deg )
 HO1         -2.9784205058708269E-002
 HO2         -2.7593380164448730E-002
 HOH         -9.2606219042947651E-004

siesta: Atomic forces (eV/Ang):
----------------------------------------
   Tot    0.002122    0.094691    0.000000
----------------------------------------
   Max    0.056777
   Res    0.032324    sqrt( Sum f_i^2 / 3N )
----------------------------------------
   Max    0.056777    constrained

Stress tensor Voigt[x,y,z,yz,xz,xy] (kbar):        0.52        0.21       -0.49        0.00       -0.00        0.02
(Free)E + p*V (eV/cell)     -468.7751
Target enthalpy (eV/cell)     -468.7611

                     ====================================
                        Begin CG opt. move =     10

zmatrix: Z-matrix coordinates: (Ang ; deg )
zmatrix: (Fractional coordinates have been converted to cartesian)
molecule    1 (     3 atoms)
      0.00000000      0.00000000      0.00000000
      0.96691297     90.00000000     37.74391900
      0.96686002    105.14184429     90.00000000


Z-matrix Symbol Section -------
Variables
 HO1         0.96691297446913937     
 HO2         0.96686002162972107     
 HOH          105.14184428807123     
Constants
------------ End of Z-matrix Information

                     ====================================

outcell: Unit cell vectors (Ang):
        7.718081    0.000000    0.000000
        0.000000    6.151677    0.000000
        0.000000    0.000000    6.059025

outcell: Cell vector modules (Ang)   :    7.718081    6.151677    6.059025
outcell: Cell angles (23,13,12) (deg):     90.0000     90.0000     90.0000
outcell: Cell volume (Ang**3)        :    287.6773
<dSpData1D:S at geom step 10
  <sparsity:sparsity for geom step 10
    nrows_g=23 nrows=3 sparsity=.1304 nnzs=69, refcount: 7>
  <dData1D:(new from dSpData1D) n=69, refcount: 1>
refcount: 1>
new_DM -- step:    11
Re-using DM from previous geometries...
Number of DMs in history: 1
 DM extrapolation coefficients: 
1   1.00000
New DM after history re-use:
<dSpData2D:SpM extrapolated using coords
  <sparsity:sparsity for geom step 10
    nrows_g=23 nrows=3 sparsity=.1304 nnzs=69, refcount: 9>
  <dData2D:(temp array for extrapolation) n=69 m=1, refcount: 1>
refcount: 1>
No. of atoms with KB's overlaping orbs in proc 0. Max # of overlaps:       3      23
New grid distribution:   1
           1       1:   27    1:   12    1:    5
           2       1:   27    1:   12    6:   10
           3       1:   27    1:   12   11:   15
           4       1:   27    1:   12   16:   20
           5       1:   27   13:   24    1:    5
           6       1:   27   13:   24    6:   10
           7       1:   27   13:   24   11:   15
           8       1:   27   13:   24   16:   20

InitMesh: MESH =    54 x    48 x    40 =      103680
InitMesh: (bp) =    27 x    24 x    20 =       12960
InitMesh: Mesh cutoff (required, used) =   120.000   120.453 Ry
ExtMesh (bp) on 0 =    67 x    56 x    45 =      168840
New grid distribution:   2
           1       9:   27    8:   24    1:    7
           2       9:   27    1:    7    1:    7
           3       9:   27    1:    7    8:   20
           4       1:    8    1:    7    8:   20
           5       1:    8    8:   24    1:    7
           6       1:    8    1:    7    1:    7
           7       9:   27    8:   24    8:   20
           8       1:    8    8:   24    8:   20
New grid distribution:   3
           1      12:   27    1:    8    1:    9
           2       1:   11    1:    8   10:   20
           3       1:   11    9:   24    9:   20
           4      12:   27    1:    8   10:   20
           5      12:   27    9:   24    1:    8
           6       1:   11    9:   24    1:    8
           7      12:   27    9:   24    9:   20
           8       1:   11    1:    8    1:    9
Setting up quadratic distribution...
ExtMesh (bp) on 0 =    59 x    61 x    47 =      169153
PhiOnMesh: Number of (b)points on node 0 =                 2261
PhiOnMesh: nlist on node 0 =                 8583

        iscf     Eharris(eV)        E_KS(eV)     FreeEng(eV)     dDmax    Ef(eV) dHmax(eV)
   scf:    1     -468.760347     -468.761425     -468.761425  0.006710 -3.235027  0.040026
   scf:    2     -468.761260     -468.761402     -468.761402  0.001740 -3.259757  0.056645
   scf:    3     -468.761496     -468.761471     -468.761471  0.001056 -3.244897  0.003236
   scf:    4     -468.761473     -468.761472     -468.761472  0.000109 -3.245312  0.001095
   scf:    5     -468.761472     -468.761472     -468.761472  0.000051 -3.245266  0.000107

SCF Convergence by DM+H criterion
max |DM_out - DM_in|         :     0.0000510468
max |H_out - H_in|      (eV) :     0.0001068927
SCF cycle converged after 5 iterations

Using DM_out to compute the final energy and forces
No. of atoms with KB's overlaping orbs in proc 0. Max # of overlaps:       3      23

siesta: E_KS(eV) =             -468.7615

zmatrix: Atomic forces (eV/Ang ; eV/deg )
zmatrix: (No information if symbols are used)
molecule    1 (     3 atoms)
     1    0.000000    0.000000    0.000000
     2    0.000000    0.000000    0.000000
     3    0.000000    0.000000    0.000000


Variable forces (eV/Ang ; eV/deg )
 HO1         -9.3800722859498575E-004
 HO2         -3.1302984783604946E-004
 HOH         -1.1254420720911246E-005

siesta: Atomic forces (eV/Ang):
----------------------------------------
   Tot    0.001328    0.094679    0.000000
----------------------------------------
   Max    0.094514
   Res    0.031513    sqrt( Sum f_i^2 / 3N )
----------------------------------------
   Max    0.094514    constrained

Stress tensor Voigt[x,y,z,yz,xz,xy] (kbar):        0.05        0.38       -0.49        0.00       -0.00        0.01
(Free)E + p*V (eV/cell)     -468.7581
Target enthalpy (eV/cell)     -468.7615

outcoor: Relaxed atomic coordinates (Ang):                  
    0.00000000    0.00000000    0.00000000   1       1  O
    0.76459083    0.59187969   -0.00000000   2       2  H
   -0.77100707    0.58340928   -0.00000000   2       3  H

zmatrix: Z-matrix coordinates: (Ang ; deg )
zmatrix: (Fractional coordinates have been converted to cartesian)
molecule    1 (     3 atoms)
      0.00000000      0.00000000      0.00000000
      0.96691297     90.00000000     37.74391900
      0.96686002    105.14184429     90.00000000


Z-matrix Symbol Section -------
Variables
 HO1         0.96691297446913937     
 HO2         0.96686002162972107     
 HOH          105.14184428807123     
Constants
------------ End of Z-matrix Information


siesta: Program's energy decomposition (eV):
siesta: Ebs     =      -105.580091
siesta: Eions   =       815.854478
siesta: Ena     =       174.424398
siesta: Ekin    =       354.223468
siesta: Enl     =       -63.249567
siesta: Eso     =         0.000000
siesta: Edftu   =         0.000000
siesta: DEna    =        -3.469882
siesta: DUscf   =         0.816129
siesta: DUext   =         0.000000
siesta: Exc     =      -115.651541
siesta: eta*DQ  =         0.000000
siesta: Emadel  =         0.000000
siesta: Emeta   =         0.000000
siesta: Emolmec =         0.000000
siesta: Ekinion =         0.000000
siesta: Eharris =      -468.761472
siesta: Etot    =      -468.761472
siesta: FreeEng =      -468.761472

siesta: Final energy (eV):
siesta:  Band Struct. =    -105.580091
siesta:       Kinetic =     354.223468
siesta:       Hartree =     396.166933
siesta:       Edftu   =       0.000000
siesta:       Eso     =       0.000000
siesta:    Ext. field =       0.000000
siesta:   Exch.-corr. =    -115.651541
siesta:  Ion-electron =   -1102.094924
siesta:       Ion-ion =      -1.405408
siesta:       Ekinion =       0.000000
siesta:         Total =    -468.761472
siesta:         Fermi =      -3.245266

siesta: Atomic forces (eV/Ang):
siesta:      1    0.001724    0.094514    0.000000
siesta:      2   -0.001048   -0.000179   -0.000000
siesta:      3    0.000652    0.000343   -0.000000
siesta: ----------------------------------------
siesta:    Tot    0.001328    0.094679    0.000000

siesta: Stress tensor (static) (eV/Ang**3):
siesta:     0.000034    0.000004    0.000000
siesta:     0.000004    0.000237    0.000000
siesta:    -0.000000    0.000000   -0.000306

siesta: Cell volume =        287.677305 Ang**3

siesta: Pressure (static):
siesta:                Solid            Molecule  Units
siesta:           0.00000013          0.00000061  Ry/Bohr**3
siesta:           0.00001166          0.00005603  eV/Ang**3
siesta:           0.01867700          0.08977681  kBar
(Free)E+ p_basis*V_orbitals  =        -468.053426
(Free)Eharris+ p_basis*V_orbitals  =        -468.053426

siesta: Electric dipole (a.u.)  =   -0.003145    0.588467   -0.000000
siesta: Electric dipole (Debye) =   -0.007994    1.495734   -0.000000

cite: Please see "h2oZ.bib" for an exhaustive BiBTeX file.
cite: Please clearly indicate Siesta version in published work: v4.1-b4-351
cite: This calculation has made use of the following articles
cite: which are encouraged to be cited in a published work.
        Primary SIESTA paper
          DOI: www.doi.org/10.1088/0953-8984/14/11/302

>> End of run:  22-JAN-2021  23:11:05
Job completed
