Siesta Version  : v4.1-b4-351
Architecture    : x86_64-linux-n-62-26-19
Compiler version: GNU Fortran (GCC) 9.3.0
Compiler flags  : mpifort -m64 -fPIC -O3 -march=native -ftree-vectorize -fexpensive-optimizatioons -funroll-loops -fprefetch-loop-arrays -fno-second-underscore  -flto
PP flags        : -I/dtu/sw/dcc/SL73/2020-aug/generic/build-tools/1.0/include -I/dtu/sw/dcc/SL773/2020-aug/generic/gcc/9.3.0/include -I/dtu/sw/dcc/SL73/2020-aug/generic/gcc/9.3.0/include -I/dtu/sw/dcc/SL73/2020-aug/XeonE5-2660v3/gnu/9.3.0/zlib/1.2.11/include -I/dtu/sw/dcc/SL73/2020-aug/generic/numactl/2.0.12/include -I/dtu/sw/dcc/SL73/2020-aug/XeonE5-2660v3/gnu/9.3.0/libxml2/2.9.10/include -I/dtu/sw/dcc/SL73/2020-aug/XeonE5-2660v3/gnu/9.3.0/hwloc/2.2.0/include -I/dtu/sw/dcc/SL73/2020-aug/XeonE5-2660v3/gnu/9.3.0/knem/1.1.4/include -I/dtu/sw/dcc/SL73/2020-aug/XeonE5-2660v3/gnu/9.3.0/ucx/1.8.1/include -I/dtu/sw/dcc/SL73/2020-aug/XeonE5-2660v3/gnu/9.3.0/openmpi/4.0.4/include -I/dtu/sw/dcc/SL73/2020-aug/XeonE5-2660v3/gnu/9.3.0/szip/2.1.1/include -I/dtu/sw/dcc/SL73/2020-aug/XeonE5-2660v3/gnu/9.3.0/hdf5/1.12.0/include -I/dtu/sw/dcc/SL73/2020-aug/XeonE5-2660v3/gnu/9.3.0/pnetcdf/1.12.1/include -I/dtu/sw/dcc/SL73/2020-aug/generic/gen-zlib/1.2.11/include -I/dtu/sw/dcc/SL73/2020-aug/generic/openssl/1.1.1/include -I/dtu/sw/dcc/SL73/2020-aug/generic/libssh2/1.8.2/include -I/dtu/sw/dcc/SL73/2020-aug/generic/curl/7.65.1/include -I/dtu/sw/dcc/SL73/2020-aug/XeonE5-2660v3/gnu/9.3.0/netcdf/4.7.4/include -I/dtu/sw/dcc/SL73/2020-aug/XeonE5-2660v3/gnu/9.3.0/flook/0.8.1/include -I/dtu/sw/dcc/SL73/2020-aug/XeonE5-2660v3/gnu/9.3.0/fftw/3.3.8/include -I/dtu/sw/dcc/SL73/2020-aug/XeonE5-2660v3/gnu/9.3.0/parmetis/4.0.3/include -I/dtu/sw/dcc/SL73/2020-aug/XeonE5-2660v3/gnu/9.3.0/scalapack/2.1.0/include -I/dtu/sw/dcc/SL73/2020-aug/XeonE5-2660v3/gnu/9.3.0/lapack/3.9.0/include -I/dtu/sw/dcc/SL73/2020-aug/XeonE5-2660v3/gnu/9.3.0/blis/0.7.0/include -I/dtu/sw/dcc/SL73/2020-aug/XeonE5-2660v3/gnu/9.3.0/scotch/6.0.9/include -I/dtu/sw/dcc/SL73/2020-aug/XeonE5-2660v3/gnu/9.3.0/mumps/5.3.3/include -I/dtu/sw/dcc/SL73/2020-aug/XeonE5-2660v3/gnu/9.3.0/elpa/2020.05.001/include -DSIESTA__ELPA -DMPI -DFC_HAVE_FLUSH -DFC_HAVE_ABORT -DCDF -DCDF4 -DSIESTA__FLOOK  -DNCDF -DNCDF_4 -DNCDF_PARALLEL -DTS_NOCHECKS -DSIESTA__METIS -DSIESTA__MUMPS -DSIESTA__MRRR -I/dtu/sw/dcc/SL73/2020-aug/XeonE5-2660v3/gnu/9.3.0/elpa/2020.05.001/include/elpa
Libraries       : libncdf.a libfdict.a -lnetcdff -lnetcdf -lpnetcdf -lhdf5_hl -lhdf5 -lz  -lzmuumps -lmumps_common -lesmumps -lscotch -lscotcherr -lpord -lparmetis -lmetis -lelpa -lscalapack -llapack -lblis  -L/dtu/sw/dcc/SL73/2020-aug/XeonE5-2660v3/gnu/9.3.0/flook/0.8.1/lib -Wl,-rpath=/dtu/sw/dcc/SL73/2020-aug/XeonE5-2660v3/gnu/9.3.0/flook/0.8.1/lib -lflookall -ldl  -flto -fuse-linker-plugin  -lmetis
PARALLEL version
NetCDF support
NetCDF-4 support
NetCDF-4 MPI-IO support
METIS ordering support
Lua support

* Running on 8 nodes in parallel
>> Start of run:  22-JAN-2021  23:12:19

                           ***********************       
                           *  WELCOME TO SIESTA  *       
                           ***********************       

reinit: Reading from standard input
reinit: Dumped input in INPUT_TMP.71352
************************** Dump of input data file ****************************
SystemName          Water molecule -- md verlet
SystemLabel         h2o
NumberOfAtoms       3
NumberOfSpecies     2
MeshCutoff  100 Ry
%block ChemicalSpeciesLabel
 1  8  O      # Species index, atomic number, species label
 2  1  H
%endblock ChemicalSpeciesLabel
LatticeConstant 8.0 Ang
%block LatticeVectors
1.0 0.0 0.0
0.0 1.0 0.0
0.0 0.0 0.8
%endblock LatticeVectors
AtomicCoordinatesFormat  Ang
%block AtomicCoordinatesAndAtomicSpecies
 0.000  0.000  0.000  1
 0.757  0.586  0.000  2
-0.757  0.586  0.000  2
%endblock AtomicCoordinatesAndAtomicSpecies
Solution.Method       diagon
MeshCutoff             100 Ry
WriteCoorStep      .true.
WriteForces        .true.
WriteMDHistory     .true.
MD.UseSaveXV       T
MD.TypeOfRun         Verlet
MD.InitialTemperature 600 K
MD.Initial.Time.Step      1
MD.Final.Time.Step        20
MD.Length.Time.Step       0.2 fs
************************** End of input data file *****************************

reinit: -----------------------------------------------------------------------
reinit: System Name: Water molecule -- md verlet
reinit: -----------------------------------------------------------------------
reinit: System Label: h2o
reinit: -----------------------------------------------------------------------

initatom: Reading input for the pseudopotentials and atomic orbitals ----------
Species number:   1 Atomic number:    8 Label: O
Species number:   2 Atomic number:    1 Label: H

Ground state valence configuration:   2s02  2p04
Reading pseudopotential information in formatted form from O.psf

Valence configuration for pseudopotential generation:
2s( 2.00) rc: 1.14
2p( 4.00) rc: 1.14
3d( 0.00) rc: 1.14
4f( 0.00) rc: 1.14
Ground state valence configuration:   1s01
Reading pseudopotential information in formatted form from H.psf

Valence configuration for pseudopotential generation:
1s( 1.00) rc: 1.25
2p( 0.00) rc: 1.25
3d( 0.00) rc: 1.25
4f( 0.00) rc: 1.25
For O, standard SIESTA heuristics set lmxkb to 3
 (one more than the basis l, including polarization orbitals).
Use PS.lmax or PS.KBprojectors blocks to override.
For H, standard SIESTA heuristics set lmxkb to 2
 (one more than the basis l, including polarization orbitals).
Use PS.lmax or PS.KBprojectors blocks to override.

<basis_specs>
===============================================================================
O                    Z=   8    Mass=  16.000        Charge= 0.17977+309
Lmxo=1 Lmxkb= 3    BasisType=split      Semic=F
L=0  Nsemic=0  Cnfigmx=2
          i=1  nzeta=2  polorb=0  (2s)
            splnorm:   0.15000    
               vcte:    0.0000    
               rinn:    0.0000    
               qcoe:    0.0000    
               qyuk:    0.0000    
               qwid:   0.10000E-01
                rcs:    0.0000      0.0000    
            lambdas:    1.0000      1.0000    
L=1  Nsemic=0  Cnfigmx=2
          i=1  nzeta=2  polorb=1  (2p)
            splnorm:   0.15000    
               vcte:    0.0000    
               rinn:    0.0000    
               qcoe:    0.0000    
               qyuk:    0.0000    
               qwid:   0.10000E-01
                rcs:    0.0000      0.0000    
            lambdas:    1.0000      1.0000    
-------------------------------------------------------------------------------
L=0  Nkbl=1  erefs: 0.17977+309
L=1  Nkbl=1  erefs: 0.17977+309
L=2  Nkbl=1  erefs: 0.17977+309
L=3  Nkbl=1  erefs: 0.17977+309
===============================================================================
</basis_specs>

atom: Called for O                     (Z =   8)

read_vps: Pseudopotential generation method:
read_vps: ATM3      Troullier-Martins                       
Valence charge for ps generation:    6.00000

xc_check: Exchange-correlation functional:
xc_check: Ceperley-Alder
V l=0 = -2*Zval/r beyond r=  1.1278
V l=1 = -2*Zval/r beyond r=  1.1278
V l=2 = -2*Zval/r beyond r=  1.1278
V l=3 = -2*Zval/r beyond r=  1.1138
All V_l potentials equal beyond r=  1.1278
This should be close to max(r_c) in ps generation
All pots = -2*Zval/r beyond r=  1.1278

VLOCAL1: 99.0% of the norm of Vloc inside     34.126 Ry
VLOCAL1: 99.9% of the norm of Vloc inside     77.774 Ry
atom: Maximum radius for 4*pi*r*r*local-pseudopot. charge    1.37759
atom: Maximum radius for r*vlocal+2*Zval:    1.18566
GHOST: No ghost state for L =  0
GHOST: No ghost state for L =  1
GHOST: No ghost state for L =  2
GHOST: No ghost state for L =  3

KBgen: Kleinman-Bylander projectors: 
   l= 0   rc=  1.294105   el= -1.742414   Ekb=  9.135903   kbcos=  0.326910
   l= 1   rc=  1.294105   el= -0.676589   Ekb= -8.124878   kbcos= -0.395047
   l= 2   rc=  1.448233   el=  0.002386   Ekb= -2.039267   kbcos= -0.003484
   l= 3   rc=  1.561052   el=  0.003508   Ekb= -0.799141   kbcos= -0.000344

KBgen: Total number of  Kleinman-Bylander projectors:   16
atom: -------------------------------------------------------------------------

atom: SANKEY-TYPE ORBITALS:
atom: Selected multiple-zeta basis: split     

SPLIT: Orbitals with angular momentum L= 0

SPLIT: Basis orbitals for state 2s

SPLIT: PAO cut-off radius determined from an
SPLIT: energy shift=  0.020000 Ry

   izeta = 1
                 lambda =    1.000000
                     rc =    3.305093
                 energy =   -1.723766
                kinetic =    1.614911
    potential(screened) =   -3.338677
       potential(ionic) =  -11.304675

   izeta = 2
                 rmatch =    2.510382
              splitnorm =    0.150000
                 energy =   -1.471299
                kinetic =    2.446434
    potential(screened) =   -3.917732
       potential(ionic) =  -12.476133

SPLIT: Orbitals with angular momentum L= 1

SPLIT: Basis orbitals for state 2p

SPLIT: PAO cut-off radius determined from an
SPLIT: energy shift=  0.020000 Ry

   izeta = 1
                 lambda =    1.000000
                     rc =    3.937239
                 energy =   -0.658841
                kinetic =    5.005986
    potential(screened) =   -5.664827
       potential(ionic) =  -13.452360

   izeta = 2
                 rmatch =    2.541963
              splitnorm =    0.150000
                 energy =   -0.367441
                kinetic =    7.530509
    potential(screened) =   -7.897949
       potential(ionic) =  -16.611953

POLgen: Perturbative polarization orbital with L=  2

POLgen: Polarization orbital for state 2p

   izeta = 1
                     rc =    3.937239
                 energy =    2.398520
                kinetic =    4.716729
    potential(screened) =   -2.318209
       potential(ionic) =   -8.603170
atom: Total number of Sankey-type orbitals: 13

atm_pop: Valence configuration (for local Pseudopot. screening):
 2s( 2.00)                                                            
 2p( 4.00)                                                            
Vna: chval, zval:    6.00000   6.00000

Vna:  Cut-off radius for the neutral-atom potential:   3.937239

atom: _________________________________________________________________________

<basis_specs>
===============================================================================
H                    Z=   1    Mass=  1.0100        Charge= 0.17977+309
Lmxo=0 Lmxkb= 2    BasisType=split      Semic=F
L=0  Nsemic=0  Cnfigmx=1
          i=1  nzeta=2  polorb=1  (1s)
            splnorm:   0.15000    
               vcte:    0.0000    
               rinn:    0.0000    
               qcoe:    0.0000    
               qyuk:    0.0000    
               qwid:   0.10000E-01
                rcs:    0.0000      0.0000    
            lambdas:    1.0000      1.0000    
-------------------------------------------------------------------------------
L=0  Nkbl=1  erefs: 0.17977+309
L=1  Nkbl=1  erefs: 0.17977+309
L=2  Nkbl=1  erefs: 0.17977+309
===============================================================================
</basis_specs>

atom: Called for H                     (Z =   1)

read_vps: Pseudopotential generation method:
read_vps: ATM3      Troullier-Martins                       
Valence charge for ps generation:    1.00000

xc_check: Exchange-correlation functional:
xc_check: Ceperley-Alder
V l=0 = -2*Zval/r beyond r=  1.2343
V l=1 = -2*Zval/r beyond r=  1.2189
V l=2 = -2*Zval/r beyond r=  1.2189
All V_l potentials equal beyond r=  1.2343
This should be close to max(r_c) in ps generation
All pots = -2*Zval/r beyond r=  1.2343

VLOCAL1: 99.0% of the norm of Vloc inside     28.493 Ry
VLOCAL1: 99.9% of the norm of Vloc inside     64.935 Ry
atom: Maximum radius for 4*pi*r*r*local-pseudopot. charge    1.45251
atom: Maximum radius for r*vlocal+2*Zval:    1.21892
GHOST: No ghost state for L =  0
GHOST: No ghost state for L =  1
GHOST: No ghost state for L =  2

KBgen: Kleinman-Bylander projectors: 
   l= 0   rc=  1.364359   el= -0.467325   Ekb= -2.005361   kbcos= -0.336422
   l= 1   rc=  1.434438   el=  0.001430   Ekb= -0.501708   kbcos= -0.021697
   l= 2   rc=  1.470814   el=  0.002365   Ekb= -0.190555   kbcos= -0.002281

KBgen: Total number of  Kleinman-Bylander projectors:    9
atom: -------------------------------------------------------------------------

atom: SANKEY-TYPE ORBITALS:
atom: Selected multiple-zeta basis: split     

SPLIT: Orbitals with angular momentum L= 0

SPLIT: Basis orbitals for state 1s

SPLIT: PAO cut-off radius determined from an
SPLIT: energy shift=  0.020000 Ry

   izeta = 1
                 lambda =    1.000000
                     rc =    4.828263
                 energy =   -0.449375
                kinetic =    0.929372
    potential(screened) =   -1.378747
       potential(ionic) =   -1.915047

   izeta = 2
                 rmatch =    3.854947
              splitnorm =    0.150000
                 energy =   -0.336153
                kinetic =    1.505294
    potential(screened) =   -1.841447
       potential(ionic) =   -2.413582

POLgen: Perturbative polarization orbital with L=  1

POLgen: Polarization orbital for state 1s

   izeta = 1
                     rc =    4.828263
                 energy =    0.706972
                kinetic =    1.396397
    potential(screened) =   -0.689424
       potential(ionic) =   -1.169792
atom: Total number of Sankey-type orbitals:  5

atm_pop: Valence configuration (for local Pseudopot. screening):
 1s( 1.00)                                                            
Vna: chval, zval:    1.00000   1.00000

Vna:  Cut-off radius for the neutral-atom potential:   4.828263

atom: _________________________________________________________________________

prinput: Basis input ----------------------------------------------------------

PAO.BasisType split     

%block ChemicalSpeciesLabel
    1    8 O                       # Species index, atomic number, species label
    2    1 H                       # Species index, atomic number, species label
%endblock ChemicalSpeciesLabel

%block PAO.Basis                 # Define Basis set
O                     2                    # Species label, number of l-shells
 n=2   0   2                         # n, l, Nzeta 
   3.305      2.510   
   1.000      1.000   
 n=2   1   2 P   1                   # n, l, Nzeta, Polarization, NzetaPol
   3.937      2.542   
   1.000      1.000   
H                     1                    # Species label, number of l-shells
 n=1   0   2 P   1                   # n, l, Nzeta, Polarization, NzetaPol
   4.828      3.855   
   1.000      1.000   
%endblock PAO.Basis

prinput: ----------------------------------------------------------------------

Dumping basis to NetCDF file O.ion.nc
Dumping basis to NetCDF file H.ion.nc
coor:   Atomic-coordinates input format  =     Cartesian coordinates
coor:                                          (in Angstroms)

siesta: WARNING: XV file not found

siesta: Atomic coordinates (Bohr) and species
siesta:      0.00000   0.00000   0.00000  1        1
siesta:      1.43052   1.10738   0.00000  2        2
siesta:     -1.43052   1.10738   0.00000  2        3

siesta: System type = molecule  

initatomlists: Number of atoms, orbitals, and projectors:      3    23    34

siesta: ******************** Simulation parameters ****************************
siesta:
siesta: The following are some of the parameters of the simulation.
siesta: A complete list of the parameters used, including default values,
siesta: can be found in file out.fdf
siesta:
redata: Spin configuration                          = none
redata: Number of spin components                   = 1
redata: Time-Reversal Symmetry                      = T
redata: Spin spiral                                 = F
redata: Long output                                 =   F
redata: Number of Atomic Species                    =        2
redata: Charge density info will appear in .RHO file
redata: Write Mulliken Pop.                         = NO
redata: Matel table size (NRTAB)                    =     1024
redata: Mesh Cutoff                                 =   100.0000 Ry
redata: Net charge of the system                    =     0.0000 |e|
redata: Min. number of SCF Iter                     =        0
redata: Max. number of SCF Iter                     =     1000
redata: SCF convergence failure will abort job
redata: SCF mix quantity                            = Hamiltonian
redata: Mix DM or H after convergence               =   F
redata: Recompute H after scf cycle                 =   F
redata: Mix DM in first SCF step                    =   T
redata: Write Pulay info on disk                    =   F
redata: New DM Occupancy tolerance                  = 0.000000000001
redata: No kicks to SCF
redata: DM Mixing Weight for Kicks                  =     0.5000
redata: Require Harris convergence for SCF          =   F
redata: Harris energy tolerance for SCF             =     0.000100 eV
redata: Require DM convergence for SCF              =   T
redata: DM tolerance for SCF                        =     0.000100
redata: Require EDM convergence for SCF             =   F
redata: EDM tolerance for SCF                       =     0.001000 eV
redata: Require H convergence for SCF               =   T
redata: Hamiltonian tolerance for SCF               =     0.001000 eV
redata: Require (free) Energy convergence for SCF   =   F
redata: (free) Energy tolerance for SCF             =     0.000100 eV
redata: Using Saved Data (generic)                  =   F
redata: Use continuation files for DM               =   F
redata: Neglect nonoverlap interactions             =   F
redata: Method of Calculation                       = Diagonalization
redata: Electronic Temperature                      =   299.9869 K
redata: Fix the spin of the system                  =   F
redata: Dynamics option                             = Verlet MD run
redata: Initial MD time step                        =        1
redata:   Final MD time step                        =       20
redata: Length of MD time step                      =     0.2000 fs
redata: Initial Temperature of MD run               =   600.0000 K
redata: Perform a MD quench                         =   F
mix.SCF: Pulay mixing                            = Pulay
mix.SCF:    Variant                              = stable
mix.SCF:    History steps                        = 2
mix.SCF:    Linear mixing weight                 =     0.250000
mix.SCF:    Mixing weight                        =     0.250000
mix.SCF:    SVD condition                        = 0.1000E-07
redata: Save all siesta data in one NC              =   F
redata: ***********************************************************************

%block SCF.Mixers
  Pulay
%endblock SCF.Mixers

%block SCF.Mixer.Pulay
  # Mixing method
  method pulay
  variant stable

  # Mixing options
  weight 0.2500
  weight.linear 0.2500
  history 2
%endblock SCF.Mixer.Pulay

Size of DM history Fstack: 1
Total number of electrons:     8.000000
Total ionic charge:     8.000000

* ProcessorY, Blocksize:    2   3


* Orbital distribution balance (max,min):     3     2

 Kpoints in:            1 . Kpoints trimmed:            1

siesta: k-grid: Number of k-points =     1
siesta: k-grid: Cutoff (effective) =     3.200 Ang
siesta: k-grid: Supercell and displacements
siesta: k-grid:    1   0   0      0.000
siesta: k-grid:    0   1   0      0.000
siesta: k-grid:    0   0   1      0.000

diag: Algorithm                                     = D&C
diag: Parallel over k                               =   F
diag: Use parallel 2D distribution                  =   T
diag: Parallel block-size                           = 3
diag: Parallel distribution                         =     2 x     4
diag: Used triangular part                          = Lower
diag: Absolute tolerance                            =  0.100E-15
diag: Orthogonalization factor                      =  0.100E-05
diag: Memory factor                                 =  1.0000


ts: **************************************************************
ts: Save H and S matrices                           =    F
ts: Save DM and EDM matrices                        =    F
ts: Only save the overlap matrix S                  =    F
ts: **************************************************************

************************ Begin: TS CHECKS AND WARNINGS ************************
************************ End: TS CHECKS AND WARNINGS **************************


                     ====================================
                        Begin MD step =      1
                     ====================================

outcoor: Atomic coordinates (Ang):                          
    0.00000000    0.00000000    0.00000000   1       1  O
    0.75700000    0.58600000    0.00000000   2       2  H
   -0.75700000    0.58600000    0.00000000   2       3  H

outcell: Unit cell vectors (Ang):
        8.000000    0.000000    0.000000
        0.000000    8.000000    0.000000
        0.000000    0.000000    6.400000

outcell: Cell vector modules (Ang)   :    8.000000    8.000000    6.400000
outcell: Cell angles (23,13,12) (deg):     90.0000     90.0000     90.0000
outcell: Cell volume (Ang**3)        :    409.6000
<dSpData1D:S at geom step 1
  <sparsity:sparsity for geom step 1
    nrows_g=23 nrows=3 sparsity=.1304 nnzs=69, refcount: 7>
  <dData1D:(new from dSpData1D) n=69, refcount: 1>
refcount: 1>
new_DM -- step:     1
Initializing Density Matrix...
DM filled with atomic data:
<dSpData2D:DM initialized from atoms
  <sparsity:sparsity for geom step 1
    nrows_g=23 nrows=3 sparsity=.1304 nnzs=69, refcount: 8>
  <dData2D:DM n=69 m=1, refcount: 1>
refcount: 1>
No. of atoms with KB's overlaping orbs in proc 0. Max # of overlaps:       3      23
New grid distribution:   1
           1       1:   25    1:   13    1:    5
           2       1:   25    1:   13    6:   10
           3       1:   25    1:   13   11:   15
           4       1:   25    1:   13   16:   20
           5       1:   25   14:   25    1:    5
           6       1:   25   14:   25    6:   10
           7       1:   25   14:   25   11:   15
           8       1:   25   14:   25   16:   20

InitMesh: MESH =    50 x    50 x    40 =      100000
InitMesh: (bp) =    25 x    25 x    20 =       12500
InitMesh: Mesh cutoff (required, used) =   100.000   107.960 Ry
ExtMesh (bp) on 0 =    57 x    45 x    37 =       94905
New grid distribution:   2
           1       7:   25    6:   25    1:    6
           2       7:   25    1:    5    1:    6
           3       7:   25    1:    5    7:   20
           4       1:    6    1:    5    7:   20
           5       1:    6    6:   25    1:    6
           6       1:    6    1:    5    1:    6
           7       7:   25    6:   25    7:   20
           8       1:    6    6:   25    7:   20
New grid distribution:   3
           1       1:    9    7:   25    1:    7
           2      11:   25    1:    6    1:    8
           3       1:    9    7:   25    8:   20
           4      11:   25    1:    6    9:   20
           5      10:   25    7:   25    1:    7
           6       1:   10    1:    6    9:   20
           7      10:   25    7:   25    8:   20
           8       1:   10    1:    6    1:    8
Setting up quadratic distribution...
ExtMesh (bp) on 0 =    51 x    52 x    38 =      100776
PhiOnMesh: Number of (b)points on node 0 =                 2280
PhiOnMesh: nlist on node 0 =                 5165

stepf: Fermi-Dirac step function

siesta: Program's energy decomposition (eV):
siesta: Ebs     =       -82.119669
siesta: Eions   =       815.854478
siesta: Ena     =       175.155695
siesta: Ekin    =       377.531314
siesta: Enl     =       -69.272321
siesta: Eso     =         0.000000
siesta: Edftu   =         0.000000
siesta: DEna    =       -17.548253
siesta: DUscf   =         2.107478
siesta: DUext   =         0.000000
siesta: Exc     =      -117.110096
siesta: eta*DQ  =         0.000000
siesta: Emadel  =         0.000000
siesta: Emeta   =         0.000000
siesta: Emolmec =         0.000000
siesta: Ekinion =         0.000000
siesta: Eharris =      -466.820729
siesta: Etot    =      -464.990661
siesta: FreeEng =      -464.990661

        iscf     Eharris(eV)        E_KS(eV)     FreeEng(eV)     dDmax    Ef(eV) dHmax(eV)
   scf:    1     -466.820729     -464.990661     -464.990661  1.433758 -4.421566  7.362816
timer: Routine,Calls,Time,% = IterSCF        1       0.022   1.63
   scf:    2     -466.222677     -465.720515     -465.720515  0.059267 -3.209848  2.873260
   scf:    3     -465.834534     -465.817252     -465.817252  0.028397 -2.390871  0.344099
   scf:    4     -465.822842     -465.820237     -465.820237  0.010402 -2.315513  0.265656
   scf:    5     -465.822394     -465.821750     -465.821750  0.021596 -2.104162  0.064327
   scf:    6     -465.821894     -465.821832     -465.821832  0.000473 -2.074057  0.029944
   scf:    7     -465.821907     -465.821875     -465.821875  0.000931 -2.076615  0.020268
   scf:    8     -465.821906     -465.821892     -465.821892  0.000897 -2.081282  0.012963
   scf:    9     -465.821896     -465.821895     -465.821895  0.000620 -2.087336  0.005007
   scf:   10     -465.821894     -465.821895     -465.821895  0.000099 -2.089924  0.002495
   scf:   11     -465.821895     -465.821895     -465.821895  0.000039 -2.090352  0.001641
   scf:   12     -465.821895     -465.821895     -465.821895  0.000042 -2.090515  0.000723

SCF Convergence by DM+H criterion
max |DM_out - DM_in|         :     0.0000415343
max |H_out - H_in|      (eV) :     0.0007228882
SCF cycle converged after 12 iterations

Using DM_out to compute the final energy and forces
No. of atoms with KB's overlaping orbs in proc 0. Max # of overlaps:       3      23

siesta: E_KS(eV) =             -465.8219

siesta: E_KS - E_eggbox =      -465.8219

siesta: Atomic forces (eV/Ang):
     1    0.000000   -0.692488    0.000000
     2    0.665998    0.319146   -0.000000
     3   -0.665998    0.319146   -0.000000
----------------------------------------
   Tot   -0.000000   -0.054197    0.000000
----------------------------------------
   Max    0.692488
   Res    0.417713    sqrt( Sum f_i^2 / 3N )
----------------------------------------
   Max    0.692488    constrained

Stress tensor Voigt[x,y,z,yz,xz,xy] (kbar):       -4.36       -2.33       -1.07       -0.00        0.08        0.36
(Free)E + p*V (eV/cell)     -465.1609
Target enthalpy (eV/cell)     -465.8219

siesta: Stress tensor (static) (eV/Ang**3):
        -0.002568    0.000000    0.000000
        -0.000000   -0.001104    0.000000
         0.000000    0.000000   -0.000417

siesta: Pressure (static):          2.18394413  kBar

siesta: Stress tensor (total) (eV/Ang**3):
        -0.002718    0.000223    0.000048
         0.000223   -0.001456   -0.000003
         0.000048   -0.000003   -0.000667

siesta: Pressure (total):          2.58550296  kBar

siesta: Temp_ion =     600.000 K

                     ====================================
                        Begin MD step =      2
                     ====================================

outcoor: Atomic coordinates (Ang):                          
    0.00019082   -0.00042428    0.00038907   1       1  O
    0.75258336    0.59326734   -0.00010629   2       2  H
   -0.75560632    0.58544359   -0.00605717   2       3  H

outcell: Unit cell vectors (Ang):
        8.000000    0.000000    0.000000
        0.000000    8.000000    0.000000
        0.000000    0.000000    6.400000

outcell: Cell vector modules (Ang)   :    8.000000    8.000000    6.400000
outcell: Cell angles (23,13,12) (deg):     90.0000     90.0000     90.0000
outcell: Cell volume (Ang**3)        :    409.6000
<dSpData1D:S at geom step 2
  <sparsity:sparsity for geom step 2
    nrows_g=23 nrows=3 sparsity=.1304 nnzs=69, refcount: 7>
  <dData1D:(new from dSpData1D) n=69, refcount: 1>
refcount: 1>
new_DM -- step:     2
Re-using DM from previous geometries...
Number of DMs in history: 1
 DM extrapolation coefficients: 
1   1.00000
New DM after history re-use:
<dSpData2D:SpM extrapolated using coords
  <sparsity:sparsity for geom step 2
    nrows_g=23 nrows=3 sparsity=.1304 nnzs=69, refcount: 9>
  <dData2D:(temp array for extrapolation) n=69 m=1, refcount: 1>
refcount: 1>
No. of atoms with KB's overlaping orbs in proc 0. Max # of overlaps:       3      23
New grid distribution:   1
           1       1:   25    1:   13    1:    5
           2       1:   25    1:   13    6:   10
           3       1:   25    1:   13   11:   15
           4       1:   25    1:   13   16:   20
           5       1:   25   14:   25    1:    5
           6       1:   25   14:   25    6:   10
           7       1:   25   14:   25   11:   15
           8       1:   25   14:   25   16:   20

InitMesh: MESH =    50 x    50 x    40 =      100000
InitMesh: (bp) =    25 x    25 x    20 =       12500
InitMesh: Mesh cutoff (required, used) =   100.000   107.960 Ry
ExtMesh (bp) on 0 =    57 x    45 x    37 =       94905
New grid distribution:   2
           1       7:   25    6:   25    1:    6
           2       7:   25    1:    5    1:    6
           3       7:   25    1:    5    7:   20
           4       1:    6    1:    5    7:   20
           5       1:    6    6:   25    1:    6
           6       1:    6    1:    5    1:    6
           7       7:   25    6:   25    7:   20
           8       1:    6    6:   25    7:   20
New grid distribution:   3
           1       1:    9    7:   25    1:    7
           2      11:   25    1:    6    1:    8
           3       1:    9    7:   25    8:   20
           4      11:   25    1:    6    9:   20
           5      10:   25    7:   25    1:    7
           6       1:   10    1:    6    9:   20
           7      10:   25    7:   25    8:   20
           8       1:   10    1:    6    1:    8
Setting up quadratic distribution...
ExtMesh (bp) on 0 =    51 x    52 x    38 =      100776
PhiOnMesh: Number of (b)points on node 0 =                 2280
PhiOnMesh: nlist on node 0 =                 5155

        iscf     Eharris(eV)        E_KS(eV)     FreeEng(eV)     dDmax    Ef(eV) dHmax(eV)
   scf:    1     -465.816427     -465.820181     -465.820181  0.005385 -2.111993  0.037620
   scf:    2     -465.820026     -465.820165     -465.820165  0.001400 -2.135079  0.054200
   scf:    3     -465.820268     -465.820241     -465.820241  0.000823 -2.121472  0.003760
   scf:    4     -465.820243     -465.820242     -465.820242  0.000040 -2.121462  0.002010
   scf:    5     -465.820243     -465.820243     -465.820243  0.000061 -2.121522  0.000704

SCF Convergence by DM+H criterion
max |DM_out - DM_in|         :     0.0000609123
max |H_out - H_in|      (eV) :     0.0007043356
SCF cycle converged after 5 iterations

Using DM_out to compute the final energy and forces
No. of atoms with KB's overlaping orbs in proc 0. Max # of overlaps:       3      23

siesta: E_KS(eV) =             -465.8202

siesta: Atomic forces (eV/Ang):
     1    0.095186   -0.645321   -0.005307
     2    0.653330    0.267011    0.001260
     3   -0.751421    0.332279   -0.006813
----------------------------------------
   Tot   -0.002905   -0.046031   -0.010861
----------------------------------------
   Max    0.751421
   Res    0.421473    sqrt( Sum f_i^2 / 3N )
----------------------------------------
   Max    0.751421    constrained

Stress tensor Voigt[x,y,z,yz,xz,xy] (kbar):       -4.57       -2.24       -1.07        0.01        0.06        0.56
(Free)E + p*V (eV/cell)     -465.1489
Target enthalpy (eV/cell)     -465.8202

siesta: Stress tensor (static) (eV/Ang**3):
        -0.002699    0.000124   -0.000011
         0.000124   -0.001048    0.000006
        -0.000013    0.000006   -0.000417

siesta: Pressure (static):          2.22442332  kBar

siesta: Stress tensor (total) (eV/Ang**3):
        -0.002850    0.000348    0.000037
         0.000347   -0.001400    0.000003
         0.000035    0.000004   -0.000667

siesta: Pressure (total):          2.62598215  kBar

siesta: Temp_ion =     593.670 K

                     ====================================
                        Begin MD step =      3
                     ====================================

outcoor: Atomic coordinates (Ang):                          
    0.00038393   -0.00086401    0.00077801   1       1  O
    0.74841457    0.60063598   -0.00021211   2       2  H
   -0.75449770    0.58501324   -0.01211693   2       3  H

outcell: Unit cell vectors (Ang):
        8.000000    0.000000    0.000000
        0.000000    8.000000    0.000000
        0.000000    0.000000    6.400000

outcell: Cell vector modules (Ang)   :    8.000000    8.000000    6.400000
outcell: Cell angles (23,13,12) (deg):     90.0000     90.0000     90.0000
outcell: Cell volume (Ang**3)        :    409.6000
<dSpData1D:S at geom step 3
  <sparsity:sparsity for geom step 3
    nrows_g=23 nrows=3 sparsity=.1304 nnzs=69, refcount: 7>
  <dData1D:(new from dSpData1D) n=69, refcount: 1>
refcount: 1>
new_DM -- step:     3
Re-using DM from previous geometries...
Number of DMs in history: 1
 DM extrapolation coefficients: 
1   1.00000
New DM after history re-use:
<dSpData2D:SpM extrapolated using coords
  <sparsity:sparsity for geom step 3
    nrows_g=23 nrows=3 sparsity=.1304 nnzs=69, refcount: 9>
  <dData2D:(temp array for extrapolation) n=69 m=1, refcount: 1>
refcount: 1>
No. of atoms with KB's overlaping orbs in proc 0. Max # of overlaps:       3      23
New grid distribution:   1
           1       1:   25    1:   13    1:    5
           2       1:   25    1:   13    6:   10
           3       1:   25    1:   13   11:   15
           4       1:   25    1:   13   16:   20
           5       1:   25   14:   25    1:    5
           6       1:   25   14:   25    6:   10
           7       1:   25   14:   25   11:   15
           8       1:   25   14:   25   16:   20

InitMesh: MESH =    50 x    50 x    40 =      100000
InitMesh: (bp) =    25 x    25 x    20 =       12500
InitMesh: Mesh cutoff (required, used) =   100.000   107.960 Ry
ExtMesh (bp) on 0 =    57 x    45 x    37 =       94905
New grid distribution:   2
           1       7:   25    6:   25    1:    6
           2       7:   25    1:    5    1:    6
           3       7:   25    1:    5    7:   20
           4       1:    6    1:    5    7:   20
           5       1:    6    6:   25    1:    6
           6       1:    6    1:    5    1:    6
           7       7:   25    6:   25    7:   20
           8       1:    6    6:   25    7:   20
New grid distribution:   3
           1       1:    9    7:   25    1:    7
           2      11:   25    1:    6    1:    8
           3       1:    9    7:   25    8:   20
           4      11:   25    1:    6    9:   20
           5      10:   25    7:   25    1:    7
           6       1:   10    1:    6    9:   20
           7      10:   25    7:   25    8:   20
           8       1:   10    1:    6    1:    8
Setting up quadratic distribution...
ExtMesh (bp) on 0 =    51 x    52 x    38 =      100776
PhiOnMesh: Number of (b)points on node 0 =                 2280
PhiOnMesh: nlist on node 0 =                 5157

        iscf     Eharris(eV)        E_KS(eV)     FreeEng(eV)     dDmax    Ef(eV) dHmax(eV)
   scf:    1     -465.818370     -465.818576     -465.818576  0.005419 -2.142786  0.042838
   scf:    2     -465.818357     -465.818545     -465.818545  0.001629 -2.169296  0.063249
   scf:    3     -465.818677     -465.818642     -465.818642  0.000965 -2.153498  0.004086
   scf:    4     -465.818645     -465.818643     -465.818643  0.000042 -2.153554  0.002206
   scf:    5     -465.818645     -465.818644     -465.818644  0.000063 -2.153702  0.000661

SCF Convergence by DM+H criterion
max |DM_out - DM_in|         :     0.0000633661
max |H_out - H_in|      (eV) :     0.0006609259
SCF cycle converged after 5 iterations

Using DM_out to compute the final energy and forces
No. of atoms with KB's overlaping orbs in proc 0. Max # of overlaps:       3      23

siesta: E_KS(eV) =             -465.8186

siesta: Atomic forces (eV/Ang):
     1    0.188648   -0.577837   -0.010141
     2    0.627572    0.205217    0.002848
     3   -0.821685    0.335052   -0.013557
----------------------------------------
   Tot   -0.005465   -0.037568   -0.020851
----------------------------------------
   Max    0.821685
   Res    0.420735    sqrt( Sum f_i^2 / 3N )
----------------------------------------
   Max    0.821685    constrained

Stress tensor Voigt[x,y,z,yz,xz,xy] (kbar):       -4.66       -2.12       -1.07        0.02        0.02        0.74
(Free)E + p*V (eV/cell)     -465.1497
Target enthalpy (eV/cell)     -465.8186

siesta: Stress tensor (static) (eV/Ang**3):
        -0.002778    0.000247   -0.000025
         0.000247   -0.000960    0.000012
        -0.000026    0.000012   -0.000417

siesta: Pressure (static):          2.21917654  kBar

siesta: Stress tensor (total) (eV/Ang**3):
        -0.002910    0.000460    0.000013
         0.000460   -0.001323    0.000015
         0.000012    0.000015   -0.000667

siesta: Pressure (total):          2.61649890  kBar

siesta: Temp_ion =     587.525 K

                     ====================================
                        Begin MD step =      4
                     ====================================

outcoor: Atomic coordinates (Ang):                          
    0.00058155   -0.00131758    0.00116671   1       1  O
    0.74448386    0.60808247   -0.00031684   2       2  H
   -0.75370080    0.58471000   -0.01818183   2       3  H

outcell: Unit cell vectors (Ang):
        8.000000    0.000000    0.000000
        0.000000    8.000000    0.000000
        0.000000    0.000000    6.400000

outcell: Cell vector modules (Ang)   :    8.000000    8.000000    6.400000
outcell: Cell angles (23,13,12) (deg):     90.0000     90.0000     90.0000
outcell: Cell volume (Ang**3)        :    409.6000
<dSpData1D:S at geom step 4
  <sparsity:sparsity for geom step 4
    nrows_g=23 nrows=3 sparsity=.1304 nnzs=69, refcount: 7>
  <dData1D:(new from dSpData1D) n=69, refcount: 1>
refcount: 1>
new_DM -- step:     4
Re-using DM from previous geometries...
Number of DMs in history: 1
 DM extrapolation coefficients: 
1   1.00000
New DM after history re-use:
<dSpData2D:SpM extrapolated using coords
  <sparsity:sparsity for geom step 4
    nrows_g=23 nrows=3 sparsity=.1304 nnzs=69, refcount: 9>
  <dData2D:(temp array for extrapolation) n=69 m=1, refcount: 1>
refcount: 1>
No. of atoms with KB's overlaping orbs in proc 0. Max # of overlaps:       3      23
New grid distribution:   1
           1       1:   25    1:   13    1:    5
           2       1:   25    1:   13    6:   10
           3       1:   25    1:   13   11:   15
           4       1:   25    1:   13   16:   20
           5       1:   25   14:   25    1:    5
           6       1:   25   14:   25    6:   10
           7       1:   25   14:   25   11:   15
           8       1:   25   14:   25   16:   20

InitMesh: MESH =    50 x    50 x    40 =      100000
InitMesh: (bp) =    25 x    25 x    20 =       12500
InitMesh: Mesh cutoff (required, used) =   100.000   107.960 Ry
ExtMesh (bp) on 0 =    57 x    45 x    37 =       94905
New grid distribution:   2
           1       7:   25    6:   25    1:    6
           2       7:   25    1:    5    1:    6
           3       7:   25    1:    5    7:   20
           4       1:    6    1:    5    7:   20
           5       1:    6    6:   25    1:    6
           6       1:    6    1:    5    1:    6
           7       7:   25    6:   25    7:   20
           8       1:    6    6:   25    7:   20
New grid distribution:   3
           1       1:    9    7:   25    1:    7
           2      11:   25    1:    6    1:    8
           3       1:    9    7:   25    8:   20
           4      11:   25    1:    6    9:   20
           5      10:   25    7:   25    1:    7
           6       1:   10    1:    6    9:   20
           7      10:   25    7:   25    8:   20
           8       1:   10    1:    6    1:    8
Setting up quadratic distribution...
ExtMesh (bp) on 0 =    51 x    52 x    38 =      100776
PhiOnMesh: Number of (b)points on node 0 =                 2280
PhiOnMesh: nlist on node 0 =                 5142

        iscf     Eharris(eV)        E_KS(eV)     FreeEng(eV)     dDmax    Ef(eV) dHmax(eV)
   scf:    1     -465.820425     -465.817046     -465.817046  0.005478 -2.174308  0.048300
   scf:    2     -465.816746     -465.816994     -465.816994  0.001854 -2.204200  0.072884
   scf:    3     -465.817162     -465.817118     -465.817118  0.001108 -2.186186  0.004326
   scf:    4     -465.817121     -465.817120     -465.817120  0.000043 -2.186298  0.002361
   scf:    5     -465.817121     -465.817121     -465.817121  0.000066 -2.186524  0.000657

SCF Convergence by DM+H criterion
max |DM_out - DM_in|         :     0.0000661789
max |H_out - H_in|      (eV) :     0.0006574628
SCF cycle converged after 5 iterations

Using DM_out to compute the final energy and forces
No. of atoms with KB's overlaping orbs in proc 0. Max # of overlaps:       3      23

siesta: E_KS(eV) =             -465.8171

siesta: Atomic forces (eV/Ang):
     1    0.277221   -0.489565   -0.015329
     2    0.589580    0.134809    0.005051
     3   -0.874471    0.326442   -0.020353
----------------------------------------
   Tot   -0.007671   -0.028314   -0.030632
----------------------------------------
   Max    0.874471
   Res    0.415564    sqrt( Sum f_i^2 / 3N )
----------------------------------------
   Max    0.874471    constrained

Stress tensor Voigt[x,y,z,yz,xz,xy] (kbar):       -4.67       -1.94       -1.07        0.04       -0.02        0.91
(Free)E + p*V (eV/cell)     -465.1625
Target enthalpy (eV/cell)     -465.8171

siesta: Stress tensor (static) (eV/Ang**3):
        -0.002802    0.000365   -0.000039
         0.000365   -0.000840    0.000017
        -0.000041    0.000018   -0.000417

siesta: Pressure (static):          2.16755911  kBar

siesta: Stress tensor (total) (eV/Ang**3):
        -0.002916    0.000568   -0.000013
         0.000567   -0.001212    0.000026
        -0.000015    0.000026   -0.000667

siesta: Pressure (total):          2.56076871  kBar

siesta: Temp_ion =     581.660 K

                     ====================================
                        Begin MD step =      5
                     ====================================

outcoor: Atomic coordinates (Ang):                          
    0.00078581   -0.00178287    0.00155504   1       1  O
    0.74077682    0.61558010   -0.00041966   2       2  H
   -0.75323565    0.58453060   -0.02425445   2       3  H

outcell: Unit cell vectors (Ang):
        8.000000    0.000000    0.000000
        0.000000    8.000000    0.000000
        0.000000    0.000000    6.400000

outcell: Cell vector modules (Ang)   :    8.000000    8.000000    6.400000
outcell: Cell angles (23,13,12) (deg):     90.0000     90.0000     90.0000
outcell: Cell volume (Ang**3)        :    409.6000
<dSpData1D:S at geom step 5
  <sparsity:sparsity for geom step 5
    nrows_g=23 nrows=3 sparsity=.1304 nnzs=69, refcount: 7>
  <dData1D:(new from dSpData1D) n=69, refcount: 1>
refcount: 1>
new_DM -- step:     5
Re-using DM from previous geometries...
Number of DMs in history: 1
 DM extrapolation coefficients: 
1   1.00000
New DM after history re-use:
<dSpData2D:SpM extrapolated using coords
  <sparsity:sparsity for geom step 5
    nrows_g=23 nrows=3 sparsity=.1304 nnzs=69, refcount: 9>
  <dData2D:(temp array for extrapolation) n=69 m=1, refcount: 1>
refcount: 1>
No. of atoms with KB's overlaping orbs in proc 0. Max # of overlaps:       3      23
New grid distribution:   1
           1       1:   25    1:   13    1:    5
           2       1:   25    1:   13    6:   10
           3       1:   25    1:   13   11:   15
           4       1:   25    1:   13   16:   20
           5       1:   25   14:   25    1:    5
           6       1:   25   14:   25    6:   10
           7       1:   25   14:   25   11:   15
           8       1:   25   14:   25   16:   20

InitMesh: MESH =    50 x    50 x    40 =      100000
InitMesh: (bp) =    25 x    25 x    20 =       12500
InitMesh: Mesh cutoff (required, used) =   100.000   107.960 Ry
ExtMesh (bp) on 0 =    57 x    45 x    37 =       94905
New grid distribution:   2
           1       7:   25    6:   25    1:    6
           2       7:   25    1:    5    1:    6
           3       7:   25    1:    5    7:   20
           4       1:    6    1:    5    7:   20
           5       1:    6    6:   25    1:    6
           6       1:    6    1:    5    1:    6
           7       7:   25    6:   25    7:   20
           8       1:    6    6:   25    7:   20
New grid distribution:   3
           1       1:    9    7:   25    1:    7
           2      11:   25    1:    6    1:    8
           3       1:    9    7:   25    8:   20
           4      11:   25    1:    6    9:   20
           5      10:   25    7:   25    1:    7
           6       1:   10    1:    6    9:   20
           7      10:   25    7:   25    8:   20
           8       1:   10    1:    6    1:    8
Setting up quadratic distribution...
ExtMesh (bp) on 0 =    51 x    52 x    38 =      100776
PhiOnMesh: Number of (b)points on node 0 =                 2280
PhiOnMesh: nlist on node 0 =                 5148

        iscf     Eharris(eV)        E_KS(eV)     FreeEng(eV)     dDmax    Ef(eV) dHmax(eV)
   scf:    1     -465.822505     -465.815584     -465.815584  0.005536 -2.206361  0.053481
   scf:    2     -465.815190     -465.815505     -465.815505  0.002068 -2.239444  0.082159
   scf:    3     -465.815719     -465.815664     -465.815664  0.001246 -2.219332  0.004454
   scf:    4     -465.815667     -465.815666     -465.815666  0.000044 -2.219493  0.002451
   scf:    5     -465.815667     -465.815667     -465.815667  0.000069 -2.219790  0.000667

SCF Convergence by DM+H criterion
max |DM_out - DM_in|         :     0.0000685652
max |H_out - H_in|      (eV) :     0.0006665344
SCF cycle converged after 5 iterations

Using DM_out to compute the final energy and forces
No. of atoms with KB's overlaping orbs in proc 0. Max # of overlaps:       3      23

siesta: E_KS(eV) =             -465.8157

siesta: Atomic forces (eV/Ang):
     1    0.357351   -0.381728   -0.021336
     2    0.541476    0.056758    0.007843
     3   -0.908865    0.305859   -0.026716
----------------------------------------
   Tot   -0.010038   -0.019110   -0.040209
----------------------------------------
   Max    0.908865
   Res    0.406974    sqrt( Sum f_i^2 / 3N )
----------------------------------------
   Max    0.908865    constrained

Stress tensor Voigt[x,y,z,yz,xz,xy] (kbar):       -4.61       -1.71       -1.07        0.06       -0.07        1.07
(Free)E + p*V (eV/cell)     -465.1862
Target enthalpy (eV/cell)     -465.8157

siesta: Stress tensor (static) (eV/Ang**3):
        -0.002776    0.000473   -0.000055
         0.000473   -0.000689    0.000022
        -0.000057    0.000022   -0.000417

siesta: Pressure (static):          2.07290364  kBar

siesta: Stress tensor (total) (eV/Ang**3):
        -0.002875    0.000666   -0.000041
         0.000666   -0.001067    0.000035
        -0.000043    0.000036   -0.000668

siesta: Pressure (total):          2.46218793  kBar

siesta: Temp_ion =     576.057 K

                     ====================================
                        Begin MD step =      6
                     ====================================

outcoor: Atomic coordinates (Ang):                          
    0.00099863   -0.00225730    0.00194286   1       1  O
    0.73727520    0.62309927   -0.00051950   2       2  H
   -0.75311530    0.58446723   -0.03033721   2       3  H

outcell: Unit cell vectors (Ang):
        8.000000    0.000000    0.000000
        0.000000    8.000000    0.000000
        0.000000    0.000000    6.400000

outcell: Cell vector modules (Ang)   :    8.000000    8.000000    6.400000
outcell: Cell angles (23,13,12) (deg):     90.0000     90.0000     90.0000
outcell: Cell volume (Ang**3)        :    409.6000
<dSpData1D:S at geom step 6
  <sparsity:sparsity for geom step 6
    nrows_g=23 nrows=3 sparsity=.1304 nnzs=69, refcount: 7>
  <dData1D:(new from dSpData1D) n=69, refcount: 1>
refcount: 1>
new_DM -- step:     6
Re-using DM from previous geometries...
Number of DMs in history: 1
 DM extrapolation coefficients: 
1   1.00000
New DM after history re-use:
<dSpData2D:SpM extrapolated using coords
  <sparsity:sparsity for geom step 6
    nrows_g=23 nrows=3 sparsity=.1304 nnzs=69, refcount: 9>
  <dData2D:(temp array for extrapolation) n=69 m=1, refcount: 1>
refcount: 1>
No. of atoms with KB's overlaping orbs in proc 0. Max # of overlaps:       3      23
New grid distribution:   1
           1       1:   25    1:   13    1:    5
           2       1:   25    1:   13    6:   10
           3       1:   25    1:   13   11:   15
           4       1:   25    1:   13   16:   20
           5       1:   25   14:   25    1:    5
           6       1:   25   14:   25    6:   10
           7       1:   25   14:   25   11:   15
           8       1:   25   14:   25   16:   20

InitMesh: MESH =    50 x    50 x    40 =      100000
InitMesh: (bp) =    25 x    25 x    20 =       12500
InitMesh: Mesh cutoff (required, used) =   100.000   107.960 Ry
ExtMesh (bp) on 0 =    57 x    45 x    37 =       94905
New grid distribution:   2
           1       7:   25    6:   25    1:    6
           2       7:   25    1:    5    1:    6
           3       7:   25    1:    5    7:   20
           4       1:    6    1:    5    7:   20
           5       1:    6    6:   25    1:    6
           6       1:    6    1:    5    1:    6
           7       7:   25    6:   25    7:   20
           8       1:    6    6:   25    7:   20
New grid distribution:   3
           1       1:    9    7:   25    1:    7
           2      11:   25    1:    6    1:    8
           3       1:    9    7:   25    8:   20
           4      11:   25    1:    6    9:   20
           5      10:   25    7:   25    1:    7
           6       1:   10    1:    6    9:   20
           7      10:   25    7:   25    8:   20
           8       1:   10    1:    6    1:    8
Setting up quadratic distribution...
ExtMesh (bp) on 0 =    51 x    52 x    38 =      100776
PhiOnMesh: Number of (b)points on node 0 =                 2280
PhiOnMesh: nlist on node 0 =                 5157

        iscf     Eharris(eV)        E_KS(eV)     FreeEng(eV)     dDmax    Ef(eV) dHmax(eV)
   scf:    1     -465.824488     -465.814152     -465.814152  0.005593 -2.238780  0.058254
   scf:    2     -465.813675     -465.814061     -465.814061  0.002266 -2.274780  0.090906
   scf:    3     -465.814305     -465.814240     -465.814240  0.001374 -2.252739  0.004488
   scf:    4     -465.814242     -465.814241     -465.814241  0.000044 -2.252940  0.002485
   scf:    5     -465.814243     -465.814242     -465.814242  0.000071 -2.253301  0.000685

SCF Convergence by DM+H criterion
max |DM_out - DM_in|         :     0.0000707186
max |H_out - H_in|      (eV) :     0.0006854927
SCF cycle converged after 5 iterations

Using DM_out to compute the final energy and forces
No. of atoms with KB's overlaping orbs in proc 0. Max # of overlaps:       3      23

siesta: E_KS(eV) =             -465.8142

siesta: Atomic forces (eV/Ang):
     1    0.427546   -0.255523   -0.028495
     2    0.485153   -0.027808    0.011183
     3   -0.924359    0.273262   -0.032175
----------------------------------------
   Tot   -0.011660   -0.010069   -0.049487
----------------------------------------
   Max    0.924359
   Res    0.396557    sqrt( Sum f_i^2 / 3N )
----------------------------------------
   Max    0.924359    constrained

Stress tensor Voigt[x,y,z,yz,xz,xy] (kbar):       -4.46       -1.43       -1.07        0.07       -0.11        1.21
(Free)E + p*V (eV/cell)     -465.2211
Target enthalpy (eV/cell)     -465.8142

siesta: Stress tensor (static) (eV/Ang**3):
        -0.002698    0.000570   -0.000071
         0.000570   -0.000507    0.000024
        -0.000073    0.000024   -0.000418

siesta: Pressure (static):          1.93467501  kBar

siesta: Stress tensor (total) (eV/Ang**3):
        -0.002786    0.000754   -0.000070
         0.000753   -0.000890    0.000043
        -0.000072    0.000043   -0.000669

siesta: Pressure (total):          2.32020994  kBar

siesta: Temp_ion =     570.578 K

                     ====================================
                        Begin MD step =      7
                     ====================================

outcoor: Atomic coordinates (Ang):                          
    0.00122168   -0.00273785    0.00233000   1       1  O
    0.73395763    0.63060788   -0.00061510   2       2  H
   -0.75334561    0.58450753   -0.03643217   2       3  H

outcell: Unit cell vectors (Ang):
        8.000000    0.000000    0.000000
        0.000000    8.000000    0.000000
        0.000000    0.000000    6.400000

outcell: Cell vector modules (Ang)   :    8.000000    8.000000    6.400000
outcell: Cell angles (23,13,12) (deg):     90.0000     90.0000     90.0000
outcell: Cell volume (Ang**3)        :    409.6000
<dSpData1D:S at geom step 7
  <sparsity:sparsity for geom step 7
    nrows_g=23 nrows=3 sparsity=.1304 nnzs=69, refcount: 7>
  <dData1D:(new from dSpData1D) n=69, refcount: 1>
refcount: 1>
new_DM -- step:     7
Re-using DM from previous geometries...
Number of DMs in history: 1
 DM extrapolation coefficients: 
1   1.00000
New DM after history re-use:
<dSpData2D:SpM extrapolated using coords
  <sparsity:sparsity for geom step 7
    nrows_g=23 nrows=3 sparsity=.1304 nnzs=69, refcount: 9>
  <dData2D:(temp array for extrapolation) n=69 m=1, refcount: 1>
refcount: 1>
No. of atoms with KB's overlaping orbs in proc 0. Max # of overlaps:       3      23
New grid distribution:   1
           1       1:   25    1:   13    1:    5
           2       1:   25    1:   13    6:   10
           3       1:   25    1:   13   11:   15
           4       1:   25    1:   13   16:   20
           5       1:   25   14:   25    1:    5
           6       1:   25   14:   25    6:   10
           7       1:   25   14:   25   11:   15
           8       1:   25   14:   25   16:   20

InitMesh: MESH =    50 x    50 x    40 =      100000
InitMesh: (bp) =    25 x    25 x    20 =       12500
InitMesh: Mesh cutoff (required, used) =   100.000   107.960 Ry
ExtMesh (bp) on 0 =    57 x    45 x    37 =       94905
New grid distribution:   2
           1       7:   25    6:   25    1:    6
           2       7:   25    1:    5    1:    6
           3       7:   25    1:    5    7:   20
           4       1:    6    1:    5    7:   20
           5       1:    6    6:   25    1:    6
           6       1:    6    1:    5    1:    6
           7       7:   25    6:   25    7:   20
           8       1:    6    6:   25    7:   20
New grid distribution:   3
           1       1:    9    7:   25    1:    7
           2      11:   25    1:    6    1:    8
           3       1:    9    7:   25    8:   20
           4      11:   25    1:    6    9:   20
           5      10:   25    7:   25    1:    7
           6       1:   10    1:    6    9:   20
           7      10:   25    7:   25    8:   20
           8       1:   10    1:    6    1:    8
Setting up quadratic distribution...
ExtMesh (bp) on 0 =    51 x    52 x    38 =      100776
PhiOnMesh: Number of (b)points on node 0 =                 2280
PhiOnMesh: nlist on node 0 =                 5159

        iscf     Eharris(eV)        E_KS(eV)     FreeEng(eV)     dDmax    Ef(eV) dHmax(eV)
   scf:    1     -465.826246     -465.812696     -465.812696  0.005646 -2.271391  0.062517
   scf:    2     -465.812123     -465.812581     -465.812581  0.002445 -2.309972  0.098920
   scf:    3     -465.812867     -465.812791     -465.812791  0.001491 -2.286210  0.004446
   scf:    4     -465.812793     -465.812792     -465.812792  0.000045 -2.286444  0.002473
   scf:    5     -465.812794     -465.812793     -465.812793  0.000073 -2.286860  0.000720

SCF Convergence by DM+H criterion
max |DM_out - DM_in|         :     0.0000727731
max |H_out - H_in|      (eV) :     0.0007199451
SCF cycle converged after 5 iterations

Using DM_out to compute the final energy and forces
No. of atoms with KB's overlaping orbs in proc 0. Max # of overlaps:       3      23

siesta: E_KS(eV) =             -465.8128

siesta: Atomic forces (eV/Ang):
     1    0.484837   -0.112395   -0.037547
     2    0.422663   -0.117614    0.015030
     3   -0.921334    0.228886   -0.036337
----------------------------------------
   Tot   -0.013834   -0.001123   -0.058854
----------------------------------------
   Max    0.921334
   Res    0.386491    sqrt( Sum f_i^2 / 3N )
----------------------------------------
   Max    0.921334    constrained

Stress tensor Voigt[x,y,z,yz,xz,xy] (kbar):       -4.26       -1.09       -1.07        0.08       -0.16        1.32
(Free)E + p*V (eV/cell)     -465.2652
Target enthalpy (eV/cell)     -465.8128

siesta: Stress tensor (static) (eV/Ang**3):
        -0.002578    0.000653   -0.000085
         0.000653   -0.000299    0.000024
        -0.000087    0.000024   -0.000419

siesta: Pressure (static):          1.75998393  kBar

siesta: Stress tensor (total) (eV/Ang**3):
        -0.002657    0.000827   -0.000098
         0.000827   -0.000683    0.000047
        -0.000100    0.000047   -0.000671

siesta: Pressure (total):          2.14185153  kBar

siesta: Temp_ion =     564.978 K

                     ====================================
                        Begin MD step =      8
                     ====================================

outcoor: Atomic coordinates (Ang):                          
    0.00145635   -0.00322110    0.00271624   1       1  O
    0.73080041    0.63807188   -0.00070500   2       2  H
   -0.75392545    0.58463466   -0.04254092   2       3  H

outcell: Unit cell vectors (Ang):
        8.000000    0.000000    0.000000
        0.000000    8.000000    0.000000
        0.000000    0.000000    6.400000

outcell: Cell vector modules (Ang)   :    8.000000    8.000000    6.400000
outcell: Cell angles (23,13,12) (deg):     90.0000     90.0000     90.0000
outcell: Cell volume (Ang**3)        :    409.6000
<dSpData1D:S at geom step 8
  <sparsity:sparsity for geom step 8
    nrows_g=23 nrows=3 sparsity=.1304 nnzs=69, refcount: 7>
  <dData1D:(new from dSpData1D) n=69, refcount: 1>
refcount: 1>
new_DM -- step:     8
Re-using DM from previous geometries...
Number of DMs in history: 1
 DM extrapolation coefficients: 
1   1.00000
New DM after history re-use:
<dSpData2D:SpM extrapolated using coords
  <sparsity:sparsity for geom step 8
    nrows_g=23 nrows=3 sparsity=.1304 nnzs=69, refcount: 9>
  <dData2D:(temp array for extrapolation) n=69 m=1, refcount: 1>
refcount: 1>
No. of atoms with KB's overlaping orbs in proc 0. Max # of overlaps:       3      23
New grid distribution:   1
           1       1:   25    1:   13    1:    5
           2       1:   25    1:   13    6:   10
           3       1:   25    1:   13   11:   15
           4       1:   25    1:   13   16:   20
           5       1:   25   14:   25    1:    5
           6       1:   25   14:   25    6:   10
           7       1:   25   14:   25   11:   15
           8       1:   25   14:   25   16:   20

InitMesh: MESH =    50 x    50 x    40 =      100000
InitMesh: (bp) =    25 x    25 x    20 =       12500
InitMesh: Mesh cutoff (required, used) =   100.000   107.960 Ry
ExtMesh (bp) on 0 =    57 x    45 x    37 =       94905
New grid distribution:   2
           1       7:   25    6:   25    1:    6
           2       7:   25    1:    5    1:    6
           3       7:   25    1:    5    7:   20
           4       1:    6    1:    5    7:   20
           5       1:    6    6:   25    1:    6
           6       1:    6    1:    5    1:    6
           7       7:   25    6:   25    7:   20
           8       1:    6    6:   25    7:   20
New grid distribution:   3
           1       1:    9    7:   25    1:    7
           2      11:   25    1:    6    1:    8
           3       1:    9    7:   25    8:   20
           4      11:   25    1:    6    9:   20
           5      10:   25    7:   25    1:    7
           6       1:   10    1:    6    9:   20
           7      10:   25    7:   25    8:   20
           8       1:   10    1:    6    1:    8
Setting up quadratic distribution...
ExtMesh (bp) on 0 =    51 x    52 x    38 =      100776
PhiOnMesh: Number of (b)points on node 0 =                 2280
PhiOnMesh: nlist on node 0 =                 5148

        iscf     Eharris(eV)        E_KS(eV)     FreeEng(eV)     dDmax    Ef(eV) dHmax(eV)
   scf:    1     -465.827623     -465.811135     -465.811135  0.005697 -2.304019  0.066179
   scf:    2     -465.810470     -465.810996     -465.810996  0.002600 -2.344794  0.106018
   scf:    3     -465.811323     -465.811236     -465.811236  0.001593 -2.319551  0.004336
   scf:    4     -465.811238     -465.811237     -465.811237  0.000046 -2.319812  0.002420
   scf:    5     -465.811239     -465.811238     -465.811238  0.000075 -2.320274  0.000746

SCF Convergence by DM+H criterion
max |DM_out - DM_in|         :     0.0000748213
max |H_out - H_in|      (eV) :     0.0007455693
SCF cycle converged after 5 iterations

Using DM_out to compute the final energy and forces
No. of atoms with KB's overlaping orbs in proc 0. Max # of overlaps:       3      23

siesta: E_KS(eV) =             -465.8112

siesta: Atomic forces (eV/Ang):
     1    0.528754    0.044583   -0.048470
     2    0.355975   -0.211275    0.019307
     3   -0.900191    0.173350   -0.038840
----------------------------------------
   Tot   -0.015462    0.006657   -0.068003
----------------------------------------
   Max    0.900191
   Res    0.379700    sqrt( Sum f_i^2 / 3N )
----------------------------------------
   Max    0.900191    constrained

Stress tensor Voigt[x,y,z,yz,xz,xy] (kbar):       -3.99       -0.72       -1.08        0.08       -0.20        1.42
(Free)E + p*V (eV/cell)     -465.3180
Target enthalpy (eV/cell)     -465.8112

siesta: Stress tensor (static) (eV/Ang**3):
        -0.002418    0.000719   -0.000098
         0.000719   -0.000067    0.000022
        -0.000100    0.000022   -0.000420

siesta: Pressure (static):          1.55127875  kBar

siesta: Stress tensor (total) (eV/Ang**3):
        -0.002491    0.000886   -0.000125
         0.000885   -0.000449    0.000048
        -0.000127    0.000049   -0.000673

siesta: Pressure (total):          1.92939855  kBar

siesta: Temp_ion =     558.944 K

                     ====================================
                        Begin MD step =      9
                     ====================================

outcoor: Atomic coordinates (Ang):                          
    0.00170368   -0.00370328    0.00310132   1       1  O
    0.72777823    0.64545572   -0.00078757   2       2  H
   -0.75484680    0.58482756   -0.04866440   2       3  H

outcell: Unit cell vectors (Ang):
        8.000000    0.000000    0.000000
        0.000000    8.000000    0.000000
        0.000000    0.000000    6.400000

outcell: Cell vector modules (Ang)   :    8.000000    8.000000    6.400000
outcell: Cell angles (23,13,12) (deg):     90.0000     90.0000     90.0000
outcell: Cell volume (Ang**3)        :    409.6000
<dSpData1D:S at geom step 9
  <sparsity:sparsity for geom step 9
    nrows_g=23 nrows=3 sparsity=.1304 nnzs=69, refcount: 7>
  <dData1D:(new from dSpData1D) n=69, refcount: 1>
refcount: 1>
new_DM -- step:     9
Re-using DM from previous geometries...
Number of DMs in history: 1
 DM extrapolation coefficients: 
1   1.00000
New DM after history re-use:
<dSpData2D:SpM extrapolated using coords
  <sparsity:sparsity for geom step 9
    nrows_g=23 nrows=3 sparsity=.1304 nnzs=69, refcount: 9>
  <dData2D:(temp array for extrapolation) n=69 m=1, refcount: 1>
refcount: 1>
No. of atoms with KB's overlaping orbs in proc 0. Max # of overlaps:       3      23
New grid distribution:   1
           1       1:   25    1:   13    1:    5
           2       1:   25    1:   13    6:   10
           3       1:   25    1:   13   11:   15
           4       1:   25    1:   13   16:   20
           5       1:   25   14:   25    1:    5
           6       1:   25   14:   25    6:   10
           7       1:   25   14:   25   11:   15
           8       1:   25   14:   25   16:   20

InitMesh: MESH =    50 x    50 x    40 =      100000
InitMesh: (bp) =    25 x    25 x    20 =       12500
InitMesh: Mesh cutoff (required, used) =   100.000   107.960 Ry
ExtMesh (bp) on 0 =    57 x    45 x    37 =       94905
New grid distribution:   2
           1       7:   25    6:   25    1:    6
           2       7:   25    1:    5    1:    6
           3       7:   25    1:    5    7:   20
           4       1:    6    1:    5    7:   20
           5       1:    6    6:   25    1:    6
           6       1:    6    1:    5    1:    6
           7       7:   25    6:   25    7:   20
           8       1:    6    6:   25    7:   20
New grid distribution:   3
           1       1:    9    7:   25    1:    7
           2      11:   25    1:    6    1:    8
           3       1:    9    7:   25    8:   20
           4      11:   25    1:    6    9:   20
           5      10:   25    7:   25    1:    7
           6       1:   10    1:    6    9:   20
           7      10:   25    7:   25    8:   20
           8       1:   10    1:    6    1:    8
Setting up quadratic distribution...
ExtMesh (bp) on 0 =    51 x    52 x    38 =      100776
PhiOnMesh: Number of (b)points on node 0 =                 2280
PhiOnMesh: nlist on node 0 =                 5156

        iscf     Eharris(eV)        E_KS(eV)     FreeEng(eV)     dDmax    Ef(eV) dHmax(eV)
   scf:    1     -465.828465     -465.809378     -465.809378  0.005743 -2.336487  0.069145
   scf:    2     -465.808628     -465.809217     -465.809217  0.002728 -2.379010  0.112021
   scf:    3     -465.809581     -465.809484     -465.809484  0.001679 -2.352565  0.004172
   scf:    4     -465.809487     -465.809486     -465.809486  0.000046 -2.352846  0.002335
   scf:    5     -465.809487     -465.809486     -465.809486  0.000077 -2.353345  0.000762

SCF Convergence by DM+H criterion
max |DM_out - DM_in|         :     0.0000769218
max |H_out - H_in|      (eV) :     0.0007618424
SCF cycle converged after 5 iterations

Using DM_out to compute the final energy and forces
No. of atoms with KB's overlaping orbs in proc 0. Max # of overlaps:       3      23

siesta: E_KS(eV) =             -465.8095

siesta: Atomic forces (eV/Ang):
     1    0.557694    0.213138   -0.061641
     2    0.287744   -0.307150    0.023970
     3   -0.861960    0.107623   -0.039323
----------------------------------------
   Tot   -0.016522    0.013611   -0.076993
----------------------------------------
   Max    0.861960
   Res    0.379190    sqrt( Sum f_i^2 / 3N )
----------------------------------------
   Max    0.861960    constrained

Stress tensor Voigt[x,y,z,yz,xz,xy] (kbar):       -3.68       -0.31       -1.08        0.07       -0.24        1.48
(Free)E + p*V (eV/cell)     -465.3777
Target enthalpy (eV/cell)     -465.8095

siesta: Stress tensor (static) (eV/Ang**3):
        -0.002227    0.000767   -0.000108
         0.000767    0.000185    0.000016
        -0.000110    0.000016   -0.000420

siesta: Pressure (static):          1.31503237  kBar

siesta: Stress tensor (total) (eV/Ang**3):
        -0.002297    0.000926   -0.000148
         0.000926   -0.000191    0.000045
        -0.000150    0.000045   -0.000674

siesta: Pressure (total):          1.68911367  kBar

siesta: Temp_ion =     552.124 K

                     ====================================
                        Begin MD step =     10
                     ====================================

outcoor: Atomic coordinates (Ang):                          
    0.00196437   -0.00418035    0.00348492   1       1  O
    0.72486521    0.65272304   -0.00086105   2       2  H
   -0.75609514    0.58506128   -0.05480281   2       3  H

outcell: Unit cell vectors (Ang):
        8.000000    0.000000    0.000000
        0.000000    8.000000    0.000000
        0.000000    0.000000    6.400000

outcell: Cell vector modules (Ang)   :    8.000000    8.000000    6.400000
outcell: Cell angles (23,13,12) (deg):     90.0000     90.0000     90.0000
outcell: Cell volume (Ang**3)        :    409.6000
<dSpData1D:S at geom step 10
  <sparsity:sparsity for geom step 10
    nrows_g=23 nrows=3 sparsity=.1304 nnzs=69, refcount: 7>
  <dData1D:(new from dSpData1D) n=69, refcount: 1>
refcount: 1>
new_DM -- step:    10
Re-using DM from previous geometries...
Number of DMs in history: 1
 DM extrapolation coefficients: 
1   1.00000
New DM after history re-use:
<dSpData2D:SpM extrapolated using coords
  <sparsity:sparsity for geom step 10
    nrows_g=23 nrows=3 sparsity=.1304 nnzs=69, refcount: 9>
  <dData2D:(temp array for extrapolation) n=69 m=1, refcount: 1>
refcount: 1>
No. of atoms with KB's overlaping orbs in proc 0. Max # of overlaps:       3      23
New grid distribution:   1
           1       1:   25    1:   13    1:    5
           2       1:   25    1:   13    6:   10
           3       1:   25    1:   13   11:   15
           4       1:   25    1:   13   16:   20
           5       1:   25   14:   25    1:    5
           6       1:   25   14:   25    6:   10
           7       1:   25   14:   25   11:   15
           8       1:   25   14:   25   16:   20

InitMesh: MESH =    50 x    50 x    40 =      100000
InitMesh: (bp) =    25 x    25 x    20 =       12500
InitMesh: Mesh cutoff (required, used) =   100.000   107.960 Ry
ExtMesh (bp) on 0 =    57 x    45 x    37 =       94905
New grid distribution:   2
           1       7:   25    6:   25    1:    6
           2       7:   25    1:    5    1:    6
           3       7:   25    1:    5    7:   20
           4       1:    6    1:    5    7:   20
           5       1:    6    6:   25    1:    6
           6       1:    6    1:    5    1:    6
           7       7:   25    6:   25    7:   20
           8       1:    6    6:   25    7:   20
New grid distribution:   3
           1       1:    9    7:   25    1:    7
           2      11:   25    1:    6    1:    8
           3       1:    9    7:   25    8:   20
           4      11:   25    1:    6    9:   20
           5      10:   25    7:   25    1:    7
           6       1:   10    1:    6    9:   20
           7      10:   25    7:   25    8:   20
           8       1:   10    1:    6    1:    8
Setting up quadratic distribution...
ExtMesh (bp) on 0 =    51 x    52 x    38 =      100776
PhiOnMesh: Number of (b)points on node 0 =                 2280
PhiOnMesh: nlist on node 0 =                 5160

        iscf     Eharris(eV)        E_KS(eV)     FreeEng(eV)     dDmax    Ef(eV) dHmax(eV)
   scf:    1     -465.828612     -465.807322     -465.807322  0.005784 -2.368610  0.071337
   scf:    2     -465.806501     -465.807142     -465.807142  0.002825 -2.412395  0.116778
   scf:    3     -465.807536     -465.807432     -465.807432  0.001746 -2.385053  0.003963
   scf:    4     -465.807434     -465.807433     -465.807433  0.000047 -2.385347  0.002222
   scf:    5     -465.807435     -465.807434     -465.807434  0.000079 -2.385875  0.000768

SCF Convergence by DM+H criterion
max |DM_out - DM_in|         :     0.0000790960
max |H_out - H_in|      (eV) :     0.0007684553
SCF cycle converged after 5 iterations

Using DM_out to compute the final energy and forces
No. of atoms with KB's overlaping orbs in proc 0. Max # of overlaps:       3      23

siesta: E_KS(eV) =             -465.8074

siesta: Atomic forces (eV/Ang):
     1    0.572288    0.390264   -0.077252
     2    0.218588   -0.403542    0.028940
     3   -0.808529    0.033082   -0.037612
----------------------------------------
   Tot   -0.017653    0.019804   -0.085924
----------------------------------------
   Max    0.808529
   Res    0.387797    sqrt( Sum f_i^2 / 3N )
----------------------------------------
   Max    0.808529    constrained

Stress tensor Voigt[x,y,z,yz,xz,xy] (kbar):       -3.33        0.14       -1.08        0.06       -0.27        1.52
(Free)E + p*V (eV/cell)     -465.4437
Target enthalpy (eV/cell)     -465.8074

siesta: Stress tensor (static) (eV/Ang**3):
        -0.002006    0.000797   -0.000115
         0.000797    0.000454    0.000006
        -0.000117    0.000006   -0.000421

siesta: Pressure (static):          1.05343383  kBar

siesta: Stress tensor (total) (eV/Ang**3):
        -0.002076    0.000950   -0.000169
         0.000949    0.000088    0.000037
        -0.000171    0.000037   -0.000676

siesta: Pressure (total):          1.42295126  kBar

siesta: Temp_ion =     544.184 K

                     ====================================
                        Begin MD step =     11
                     ====================================

outcoor: Atomic coordinates (Ang):                          
    0.00223876   -0.00464808    0.00386667   1       1  O
    0.72203511    0.65983728   -0.00092356   2       2  H
   -0.75765021    0.58530755   -0.06095548   2       3  H

outcell: Unit cell vectors (Ang):
        8.000000    0.000000    0.000000
        0.000000    8.000000    0.000000
        0.000000    0.000000    6.400000

outcell: Cell vector modules (Ang)   :    8.000000    8.000000    6.400000
outcell: Cell angles (23,13,12) (deg):     90.0000     90.0000     90.0000
outcell: Cell volume (Ang**3)        :    409.6000
<dSpData1D:S at geom step 11
  <sparsity:sparsity for geom step 11
    nrows_g=23 nrows=3 sparsity=.1304 nnzs=69, refcount: 7>
  <dData1D:(new from dSpData1D) n=69, refcount: 1>
refcount: 1>
new_DM -- step:    11
Re-using DM from previous geometries...
Number of DMs in history: 1
 DM extrapolation coefficients: 
1   1.00000
New DM after history re-use:
<dSpData2D:SpM extrapolated using coords
  <sparsity:sparsity for geom step 11
    nrows_g=23 nrows=3 sparsity=.1304 nnzs=69, refcount: 9>
  <dData2D:(temp array for extrapolation) n=69 m=1, refcount: 1>
refcount: 1>
No. of atoms with KB's overlaping orbs in proc 0. Max # of overlaps:       3      23
New grid distribution:   1
           1       1:   25    1:   13    1:    5
           2       1:   25    1:   13    6:   10
           3       1:   25    1:   13   11:   15
           4       1:   25    1:   13   16:   20
           5       1:   25   14:   25    1:    5
           6       1:   25   14:   25    6:   10
           7       1:   25   14:   25   11:   15
           8       1:   25   14:   25   16:   20

InitMesh: MESH =    50 x    50 x    40 =      100000
InitMesh: (bp) =    25 x    25 x    20 =       12500
InitMesh: Mesh cutoff (required, used) =   100.000   107.960 Ry
ExtMesh (bp) on 0 =    57 x    45 x    37 =       94905
New grid distribution:   2
           1       7:   25    6:   25    1:    6
           2       7:   25    1:    5    1:    6
           3       7:   25    1:    5    7:   20
           4       1:    6    1:    5    7:   20
           5       1:    6    6:   25    1:    6
           6       1:    6    1:    5    1:    6
           7       7:   25    6:   25    7:   20
           8       1:    6    6:   25    7:   20
New grid distribution:   3
           1       1:    9    7:   25    1:    7
           2      11:   25    1:    6    1:    8
           3       1:    9    7:   25    8:   20
           4      11:   25    1:    6    9:   20
           5      10:   25    7:   25    1:    7
           6       1:   10    1:    6    9:   20
           7      10:   25    7:   25    8:   20
           8       1:   10    1:    6    1:    8
Setting up quadratic distribution...
ExtMesh (bp) on 0 =    51 x    52 x    38 =      100776
PhiOnMesh: Number of (b)points on node 0 =                 2280
PhiOnMesh: nlist on node 0 =                 5160

        iscf     Eharris(eV)        E_KS(eV)     FreeEng(eV)     dDmax    Ef(eV) dHmax(eV)
   scf:    1     -465.827955     -465.804903     -465.804903  0.005820 -2.400206  0.072693
   scf:    2     -465.804027     -465.804708     -465.804708  0.002887 -2.444730  0.120153
   scf:    3     -465.805125     -465.805015     -465.805015  0.001792 -2.416822  0.003718
   scf:    4     -465.805017     -465.805016     -465.805016  0.000048 -2.417122  0.002087
   scf:    5     -465.805017     -465.805017     -465.805017  0.000081 -2.417670  0.000765

SCF Convergence by DM+H criterion
max |DM_out - DM_in|         :     0.0000813554
max |H_out - H_in|      (eV) :     0.0007652749
SCF cycle converged after 5 iterations

Using DM_out to compute the final energy and forces
No. of atoms with KB's overlaping orbs in proc 0. Max # of overlaps:       3      23

siesta: E_KS(eV) =             -465.8050

siesta: Atomic forces (eV/Ang):
     1    0.572260    0.572324   -0.095260
     2    0.150856   -0.498730    0.034146
     3   -0.741443   -0.048750   -0.033528
----------------------------------------
   Tot   -0.018327    0.024844   -0.094642
----------------------------------------
   Max    0.741443
   Res    0.406886    sqrt( Sum f_i^2 / 3N )
----------------------------------------
   Max    0.741443    constrained

Stress tensor Voigt[x,y,z,yz,xz,xy] (kbar):       -2.94        0.61       -1.08        0.04       -0.30        1.53
(Free)E + p*V (eV/cell)     -465.5142
Target enthalpy (eV/cell)     -465.8050

siesta: Stress tensor (static) (eV/Ang**3):
        -0.001763    0.000808   -0.000119
         0.000808    0.000735   -0.000008
        -0.000120   -0.000008   -0.000420

siesta: Pressure (static):          0.77347879  kBar

siesta: Stress tensor (total) (eV/Ang**3):
        -0.001835    0.000955   -0.000185
         0.000955    0.000382    0.000023
        -0.000187    0.000023   -0.000677

siesta: Pressure (total):          1.13768208  kBar

siesta: Temp_ion =     534.844 K

                     ====================================
                        Begin MD step =     12
                     ====================================

outcoor: Atomic coordinates (Ang):                          
    0.00252685   -0.00510210    0.00424614   1       1  O
    0.71926225    0.66676230   -0.00097310   2       2  H
   -0.75948657    0.58553533   -0.06712086   2       3  H

outcell: Unit cell vectors (Ang):
        8.000000    0.000000    0.000000
        0.000000    8.000000    0.000000
        0.000000    0.000000    6.400000

outcell: Cell vector modules (Ang)   :    8.000000    8.000000    6.400000
outcell: Cell angles (23,13,12) (deg):     90.0000     90.0000     90.0000
outcell: Cell volume (Ang**3)        :    409.6000
<dSpData1D:S at geom step 12
  <sparsity:sparsity for geom step 12
    nrows_g=23 nrows=3 sparsity=.1304 nnzs=69, refcount: 7>
  <dData1D:(new from dSpData1D) n=69, refcount: 1>
refcount: 1>
new_DM -- step:    12
Re-using DM from previous geometries...
Number of DMs in history: 1
 DM extrapolation coefficients: 
1   1.00000
New DM after history re-use:
<dSpData2D:SpM extrapolated using coords
  <sparsity:sparsity for geom step 12
    nrows_g=23 nrows=3 sparsity=.1304 nnzs=69, refcount: 9>
  <dData2D:(temp array for extrapolation) n=69 m=1, refcount: 1>
refcount: 1>
No. of atoms with KB's overlaping orbs in proc 0. Max # of overlaps:       3      23
New grid distribution:   1
           1       1:   25    1:   13    1:    5
           2       1:   25    1:   13    6:   10
           3       1:   25    1:   13   11:   15
           4       1:   25    1:   13   16:   20
           5       1:   25   14:   25    1:    5
           6       1:   25   14:   25    6:   10
           7       1:   25   14:   25   11:   15
           8       1:   25   14:   25   16:   20

InitMesh: MESH =    50 x    50 x    40 =      100000
[...]
   scf:    4     -465.764423     -465.764423     -465.764423  0.000059 -1.830317  0.001656
   scf:    5     -465.764424     -465.764423     -465.764423  0.000110 -1.830106  0.000516
   scf:    6     -465.764423     -465.764423     -465.764423  0.000011 -1.830059  0.000308

SCF Convergence by DM+H criterion
max |DM_out - DM_in|         :     0.0000110457
max |H_out - H_in|      (eV) :     0.0003075992
SCF cycle converged after 6 iterations

Using DM_out to compute the final energy and forces
No. of atoms with KB's overlaping orbs in proc 0. Max # of overlaps:       3      23

siesta: E_KS(eV) =             -465.7644

siesta: Atomic forces (eV/Ang):
     1   -0.550951   -0.854580   -0.222632
     2   -0.576119    0.208783   -0.314105
     3    1.079056    0.429658    0.321482
----------------------------------------
   Tot   -0.048013   -0.216139   -0.215255
----------------------------------------
   Max    1.079056
   Res    0.578302    sqrt( Sum f_i^2 / 3N )
----------------------------------------
   Max    1.079056    constrained

Stress tensor Voigt[x,y,z,yz,xz,xy] (kbar):        4.72       -1.53       -0.09        0.46        1.93        1.10
(Free)E + p*V (eV/cell)     -466.0283
Target enthalpy (eV/cell)     -465.7644

siesta: Stress tensor (static) (eV/Ang**3):
         0.003064    0.000586    0.001146
         0.000586   -0.000721    0.000447
         0.001145    0.000447    0.000058

siesta: Pressure (static):         -1.28231690  kBar

siesta: Stress tensor (total) (eV/Ang**3):
         0.002944    0.000686    0.001202
         0.000685   -0.000953    0.000289
         0.001202    0.000289   -0.000058

siesta: Pressure (total):         -1.03205860  kBar

siesta: Temp_ion =     379.087 K

                     ====================================
                        Begin MD step =     18
                     ====================================

outcoor: Atomic coordinates (Ang):                          
    0.01228048    0.01368571    0.01216844   1       1  O
    0.62908057    0.75790605    0.04105156   2       2  H
   -0.85392607    0.18299601   -0.42186464   2       3  H

outcell: Unit cell vectors (Ang):
        8.000000    0.000000    0.000000
        0.000000    8.000000    0.000000
        0.000000    0.000000    6.400000

outcell: Cell vector modules (Ang)   :    8.000000    8.000000    6.400000
outcell: Cell angles (23,13,12) (deg):     90.0000     90.0000     90.0000
outcell: Cell volume (Ang**3)        :    409.6000
<dSpData1D:S at geom step 18
  <sparsity:sparsity for geom step 18
    nrows_g=23 nrows=3 sparsity=.1304 nnzs=69, refcount: 7>
  <dData1D:(new from dSpData1D) n=69, refcount: 1>
refcount: 1>
new_DM -- step:    18
Re-using DM from previous geometries...
Number of DMs in history: 1
 DM extrapolation coefficients: 
1   1.00000
New DM after history re-use:
<dSpData2D:SpM extrapolated using coords
  <sparsity:sparsity for geom step 18
    nrows_g=23 nrows=3 sparsity=.1304 nnzs=69, refcount: 9>
  <dData2D:(temp array for extrapolation) n=69 m=1, refcount: 1>
refcount: 1>
No. of atoms with KB's overlaping orbs in proc 0. Max # of overlaps:       3      23
New grid distribution:   1
           1       1:   25    1:   13    1:    5
           2       1:   25    1:   13    6:   10
           3       1:   25    1:   13   11:   15
           4       1:   25    1:   13   16:   20
           5       1:   25   14:   25    1:    5
           6       1:   25   14:   25    6:   10
           7       1:   25   14:   25   11:   15
           8       1:   25   14:   25   16:   20

InitMesh: MESH =    50 x    50 x    40 =      100000
InitMesh: (bp) =    25 x    25 x    20 =       12500
InitMesh: Mesh cutoff (required, used) =   100.000   107.960 Ry
ExtMesh (bp) on 0 =    57 x    45 x    37 =       94905
New grid distribution:   2
           1       8:   25    6:   25    1:    7
           2       8:   25    1:    5    1:    6
           3       8:   25    1:    5    7:   20
           4       1:    7    1:    5    8:   20
           5       1:    7    6:   25    1:    8
           6       1:    7    1:    5    1:    7
           7       8:   25    6:   25    8:   20
           8       1:    7    6:   25    9:   20
New grid distribution:   3
           1      17:   25    8:   25    1:   14
           2      11:   25    1:    7    1:   13
           3       1:   10    1:    7    9:   20
           4      11:   25    1:    7   14:   20
           5       1:   16    8:   25    1:    7
           6       1:   10    1:    7    1:    8
           7       1:   16    8:   25    8:   20
           8      17:   25    8:   25   15:   20
Setting up quadratic distribution...
ExtMesh (bp) on 0 =    50 x    52 x    39 =      101400
PhiOnMesh: Number of (b)points on node 0 =                 2520
PhiOnMesh: nlist on node 0 =                 4812

        iscf     Eharris(eV)        E_KS(eV)     FreeEng(eV)     dDmax    Ef(eV) dHmax(eV)
   scf:    1     -465.744752     -465.766038     -465.766038  0.007194 -1.838809  0.040279
   scf:    2     -465.765837     -465.765998     -465.765998  0.001829 -1.816582  0.059390
   scf:    3     -465.766099     -465.766072     -465.766072  0.001053 -1.830412  0.003058
   scf:    4     -465.766074     -465.766073     -465.766073  0.000062 -1.830322  0.001786
   scf:    5     -465.766074     -465.766074     -465.766074  0.000114 -1.830100  0.000595
   scf:    6     -465.766074     -465.766074     -465.766074  0.000012 -1.830045  0.000359

SCF Convergence by DM+H criterion
max |DM_out - DM_in|         :     0.0000124116
max |H_out - H_in|      (eV) :     0.0003590721
SCF cycle converged after 6 iterations

Using DM_out to compute the final energy and forces
No. of atoms with KB's overlaping orbs in proc 0. Max # of overlaps:       3      23

siesta: E_KS(eV) =             -465.7661

siesta: Atomic forces (eV/Ang):
     1   -0.549147   -0.956589   -0.187260
     2   -0.501861    0.290800   -0.312708
     3    1.000487    0.447028    0.287281
----------------------------------------
   Tot   -0.050522   -0.218761   -0.212687
----------------------------------------
   Max    1.000487
   Res    0.574383    sqrt( Sum f_i^2 / 3N )
----------------------------------------
   Max    1.000487    constrained

Stress tensor Voigt[x,y,z,yz,xz,xy] (kbar):        4.21       -1.75       -0.14        0.50        1.81        0.98
(Free)E + p*V (eV/cell)     -465.9641
Target enthalpy (eV/cell)     -465.7661

siesta: Stress tensor (static) (eV/Ang**3):
         0.002771    0.000497    0.001067
         0.000496   -0.000872    0.000464
         0.001066    0.000464    0.000026

siesta: Pressure (static):         -1.02836775  kBar

siesta: Stress tensor (total) (eV/Ang**3):
         0.002626    0.000612    0.001129
         0.000612   -0.001092    0.000315
         0.001129    0.000315   -0.000084

siesta: Pressure (total):         -0.77465799  kBar

siesta: Temp_ion =     385.449 K

                     ====================================
                        Begin MD step =     19
                     ====================================

outcoor: Atomic coordinates (Ang):                          
    0.01226535    0.01388808    0.01209155   1       1  O
    0.62495773    0.75850479    0.04036946   2       2  H
   -0.85051222    0.17747394   -0.42581662   2       3  H

outcell: Unit cell vectors (Ang):
        8.000000    0.000000    0.000000
        0.000000    8.000000    0.000000
        0.000000    0.000000    6.400000

outcell: Cell vector modules (Ang)   :    8.000000    8.000000    6.400000
outcell: Cell angles (23,13,12) (deg):     90.0000     90.0000     90.0000
outcell: Cell volume (Ang**3)        :    409.6000
<dSpData1D:S at geom step 19
  <sparsity:sparsity for geom step 19
    nrows_g=23 nrows=3 sparsity=.1304 nnzs=69, refcount: 7>
  <dData1D:(new from dSpData1D) n=69, refcount: 1>
refcount: 1>
new_DM -- step:    19
Re-using DM from previous geometries...
Number of DMs in history: 1
 DM extrapolation coefficients: 
1   1.00000
New DM after history re-use:
<dSpData2D:SpM extrapolated using coords
  <sparsity:sparsity for geom step 19
    nrows_g=23 nrows=3 sparsity=.1304 nnzs=69, refcount: 9>
  <dData2D:(temp array for extrapolation) n=69 m=1, refcount: 1>
refcount: 1>
No. of atoms with KB's overlaping orbs in proc 0. Max # of overlaps:       3      23
New grid distribution:   1
           1       1:   25    1:   13    1:    5
           2       1:   25    1:   13    6:   10
           3       1:   25    1:   13   11:   15
           4       1:   25    1:   13   16:   20
           5       1:   25   14:   25    1:    5
           6       1:   25   14:   25    6:   10
           7       1:   25   14:   25   11:   15
           8       1:   25   14:   25   16:   20

InitMesh: MESH =    50 x    50 x    40 =      100000
InitMesh: (bp) =    25 x    25 x    20 =       12500
InitMesh: Mesh cutoff (required, used) =   100.000   107.960 Ry
ExtMesh (bp) on 0 =    57 x    45 x    37 =       94905
New grid distribution:   2
           1       8:   25    6:   25    1:    7
           2       8:   25    1:    5    1:    7
           3       8:   25    1:    5    8:   20
           4       1:    7    1:    5    8:   20
           5       1:    7    6:   25    1:    8
           6       1:    7    1:    5    1:    7
           7       8:   25    6:   25    8:   20
           8       1:    7    6:   25    9:   20
New grid distribution:   3
           1      17:   25    8:   25    1:   14
           2      11:   25    1:    7    1:   13
           3       1:   10    1:    7    9:   20
           4      11:   25    1:    7   14:   20
           5       1:   16    8:   25    1:    7
           6       1:   10    1:    7    1:    8
           7       1:   16    8:   25    8:   20
           8      17:   25    8:   25   15:   20
Setting up quadratic distribution...
ExtMesh (bp) on 0 =    50 x    52 x    39 =      101400
PhiOnMesh: Number of (b)points on node 0 =                 2520
PhiOnMesh: nlist on node 0 =                 4804

        iscf     Eharris(eV)        E_KS(eV)     FreeEng(eV)     dDmax    Ef(eV) dHmax(eV)
   scf:    1     -465.745147     -465.767854     -465.767854  0.007447 -1.838948  0.041697
   scf:    2     -465.767643     -465.767813     -465.767813  0.001861 -1.816188  0.060970
   scf:    3     -465.767920     -465.767892     -465.767892  0.001069 -1.830333  0.003169
   scf:    4     -465.767893     -465.767893     -465.767893  0.000063 -1.830244  0.001894
   scf:    5     -465.767893     -465.767893     -465.767893  0.000116 -1.830019  0.000671
   scf:    6     -465.767893     -465.767893     -465.767893  0.000014 -1.829957  0.000409

SCF Convergence by DM+H criterion
max |DM_out - DM_in|         :     0.0000137336
max |H_out - H_in|      (eV) :     0.0004087628
SCF cycle converged after 6 iterations

Using DM_out to compute the final energy and forces
No. of atoms with KB's overlaping orbs in proc 0. Max # of overlaps:       3      23

siesta: E_KS(eV) =             -465.7679

siesta: Atomic forces (eV/Ang):
     1   -0.534733   -1.058925   -0.145240
     2   -0.425592    0.373730   -0.310318
     3    0.907155    0.464085    0.245342
----------------------------------------
   Tot   -0.053171   -0.221110   -0.210216
----------------------------------------
   Max    1.058925
   Res    0.571932    sqrt( Sum f_i^2 / 3N )
----------------------------------------
   Max    1.058925    constrained

Stress tensor Voigt[x,y,z,yz,xz,xy] (kbar):        3.64       -1.97       -0.19        0.55        1.66        0.86
(Free)E + p*V (eV/cell)     -465.8940
Target enthalpy (eV/cell)     -465.7679

siesta: Stress tensor (static) (eV/Ang**3):
         0.002444    0.000407    0.000971
         0.000407   -0.001024    0.000481
         0.000970    0.000481   -0.000014

siesta: Pressure (static):         -0.75109242  kBar

siesta: Stress tensor (total) (eV/Ang**3):
         0.002274    0.000537    0.001037
         0.000537   -0.001231    0.000341
         0.001037    0.000341   -0.000120

siesta: Pressure (total):         -0.49312474  kBar

siesta: Temp_ion =     392.488 K

                     ====================================
                        Begin MD step =     20
                     ====================================

outcoor: Atomic coordinates (Ang):                          
    0.01223740    0.01406510    0.01201119   1       1  O
    0.62067344    0.75924531    0.03956964   2       2  H
   -0.84675423    0.17212793   -0.42967552   2       3  H

outcell: Unit cell vectors (Ang):
        8.000000    0.000000    0.000000
        0.000000    8.000000    0.000000
        0.000000    0.000000    6.400000

outcell: Cell vector modules (Ang)   :    8.000000    8.000000    6.400000
outcell: Cell angles (23,13,12) (deg):     90.0000     90.0000     90.0000
outcell: Cell volume (Ang**3)        :    409.6000
<dSpData1D:S at geom step 20
  <sparsity:sparsity for geom step 20
    nrows_g=23 nrows=3 sparsity=.1304 nnzs=69, refcount: 7>
  <dData1D:(new from dSpData1D) n=69, refcount: 1>
refcount: 1>
new_DM -- step:    20
Re-using DM from previous geometries...
Number of DMs in history: 1
 DM extrapolation coefficients: 
1   1.00000
New DM after history re-use:
<dSpData2D:SpM extrapolated using coords
  <sparsity:sparsity for geom step 20
    nrows_g=23 nrows=3 sparsity=.1304 nnzs=69, refcount: 9>
  <dData2D:(temp array for extrapolation) n=69 m=1, refcount: 1>
refcount: 1>
No. of atoms with KB's overlaping orbs in proc 0. Max # of overlaps:       3      23
New grid distribution:   1
           1       1:   25    1:   13    1:    5
           2       1:   25    1:   13    6:   10
           3       1:   25    1:   13   11:   15
           4       1:   25    1:   13   16:   20
           5       1:   25   14:   25    1:    5
           6       1:   25   14:   25    6:   10
           7       1:   25   14:   25   11:   15
           8       1:   25   14:   25   16:   20

InitMesh: MESH =    50 x    50 x    40 =      100000
InitMesh: (bp) =    25 x    25 x    20 =       12500
InitMesh: Mesh cutoff (required, used) =   100.000   107.960 Ry
ExtMesh (bp) on 0 =    57 x    45 x    37 =       94905
New grid distribution:   2
           1       8:   25    6:   25    1:    7
           2       8:   25    1:    5    1:    7
           3       8:   25    1:    5    8:   20
           4       1:    7    1:    5    8:   20
           5       1:    7    6:   25    1:    8
           6       1:    7    1:    5    1:    7
           7       8:   25    6:   25    8:   20
           8       1:    7    6:   25    9:   20
New grid distribution:   3
           1      17:   25    8:   25    1:   14
           2      11:   25    1:    7    1:   13
           3       1:   10    1:    7    9:   20
           4      11:   25    1:    7   14:   20
           5       1:   16    8:   25    1:    7
           6       1:   10    1:    7    1:    8
           7       1:   16    8:   25    8:   20
           8      17:   25    8:   25   15:   20
Setting up quadratic distribution...
ExtMesh (bp) on 0 =    50 x    52 x    39 =      101400
PhiOnMesh: Number of (b)points on node 0 =                 2520
PhiOnMesh: nlist on node 0 =                 4800

        iscf     Eharris(eV)        E_KS(eV)     FreeEng(eV)     dDmax    Ef(eV) dHmax(eV)
   scf:    1     -465.745990     -465.769716     -465.769716  0.007637 -1.838904  0.042458
   scf:    2     -465.769502     -465.769675     -465.769675  0.001866 -1.816019  0.061448
   scf:    3     -465.769785     -465.769756     -465.769756  0.001067 -1.830215  0.003261
   scf:    4     -465.769757     -465.769756     -465.769756  0.000064 -1.830132  0.001979
   scf:    5     -465.769757     -465.769757     -465.769757  0.000116 -1.829913  0.000740
   scf:    6     -465.769757     -465.769757     -465.769757  0.000015 -1.829845  0.000455

SCF Convergence by DM+H criterion
max |DM_out - DM_in|         :     0.0000149598
max |H_out - H_in|      (eV) :     0.0004550523
SCF cycle converged after 6 iterations

Using DM_out to compute the final energy and forces
No. of atoms with KB's overlaping orbs in proc 0. Max # of overlaps:       3      23

siesta: E_KS(eV) =             -465.7698

siesta: Atomic forces (eV/Ang):
     1   -0.507736   -1.159155   -0.096685
     2   -0.349004    0.455894   -0.307132
     3    0.800015    0.480608    0.195917
----------------------------------------
   Tot   -0.056724   -0.222654   -0.207900
----------------------------------------
   Max    1.159155
   Res    0.571951    sqrt( Sum f_i^2 / 3N )
----------------------------------------
   Max    1.159155    constrained

Stress tensor Voigt[x,y,z,yz,xz,xy] (kbar):        3.04       -2.19       -0.26        0.59        1.49        0.74
(Free)E + p*V (eV/cell)     -465.8196
Target enthalpy (eV/cell)     -465.7698

siesta: Stress tensor (static) (eV/Ang**3):
         0.002093    0.000319    0.000860
         0.000319   -0.001173    0.000498
         0.000859    0.000498   -0.000064

siesta: Pressure (static):         -0.45762528  kBar

siesta: Stress tensor (total) (eV/Ang**3):
         0.001898    0.000462    0.000929
         0.000462   -0.001368    0.000367
         0.000928    0.000367   -0.000165

siesta: Pressure (total):         -0.19494724  kBar

siesta: Temp_ion =     399.700 K

siesta: Program's energy decomposition (eV):
siesta: Ebs     =      -102.758298
siesta: Eions   =       815.854478
siesta: Ena     =       175.100300
siesta: Ekin    =       353.211587
siesta: Enl     =       -63.186628
siesta: Eso     =         0.000000
siesta: Edftu   =         0.000000
siesta: DEna    =        -2.942547
siesta: DUscf   =         0.783363
siesta: DUext   =         0.000000
siesta: Exc     =      -112.881353
siesta: eta*DQ  =         0.000000
siesta: Emadel  =         0.000000
siesta: Emeta   =         0.000000
siesta: Emolmec =         0.000000
siesta: Ekinion =         0.103326
siesta: Eharris =      -465.666431
siesta: Etot    =      -465.666431
siesta: FreeEng =      -465.666431

siesta: Final energy (eV):
siesta:  Band Struct. =    -102.758298
siesta:       Kinetic =     353.211587
siesta:       Hartree =     415.180441
siesta:       Edftu   =       0.000000
siesta:       Eso     =       0.000000
siesta:    Ext. field =       0.000000
siesta:   Exch.-corr. =    -112.881353
siesta:  Ion-electron =   -1138.430260
siesta:       Ion-ion =      17.149828
siesta:       Ekinion =       0.103326
siesta:         Total =    -465.666431
siesta:         Fermi =      -1.829845

siesta: Atomic forces (eV/Ang):
siesta:      1   -0.507736   -1.159155   -0.096685
siesta:      2   -0.349004    0.455894   -0.307132
siesta:      3    0.800015    0.480608    0.195917
siesta: ----------------------------------------
siesta:    Tot   -0.056724   -0.222654   -0.207900

siesta: Stress tensor (static) (eV/Ang**3):
siesta:     0.002093    0.000319    0.000860
siesta:     0.000319   -0.001173    0.000498
siesta:     0.000859    0.000498   -0.000064

siesta: Cell volume =        409.600000 Ang**3

siesta: Pressure (static):
siesta:                Solid            Molecule  Units
siesta:          -0.00000311          0.00000172  Ry/Bohr**3
siesta:          -0.00028562          0.00015811  eV/Ang**3
siesta:          -0.45762528          0.25332405  kBar
(Free)E+ p_basis*V_orbitals  =        -465.184590
(Free)Eharris+ p_basis*V_orbitals  =        -465.184590

siesta: Electric dipole (a.u.)  =   -0.121638    0.430901   -0.200238
siesta: Electric dipole (Debye) =   -0.309174    1.095241   -0.508954

cite: Please see "h2o.bib" for an exhaustive BiBTeX file.
cite: Please clearly indicate Siesta version in published work: v4.1-b4-351
cite: This calculation has made use of the following articles
cite: which are encouraged to be cited in a published work.
        Primary SIESTA paper
          DOI: www.doi.org/10.1088/0953-8984/14/11/302

>> End of run:  22-JAN-2021  23:12:40
Job completed
