Siesta Version: siesta-3.2
Architecture  : SIESTA_ARCH
Compiler flags: FFLAGS
PARALLEL version
NetCDF support

* Running on    4 nodes in parallel
>> Start of run:  24-MAR-2013  18:28:37

                           ***********************       
                           *  WELCOME TO SIESTA  *       
                           ***********************       

reinit: Reading from standard input
************************** Dump of input data file ****************************
# -----------------------------------------------------------------------------
# Primitive c-Si supercell, using STRUCT file
# Annealing, HarrisFunctional
# Alberto Garcia, August-December 2005, January 2006
# -----------------------------------------------------------------------------
SystemName          Primitive silicon, Annealing, Harris, Struct File
SystemLabel         md_anneal
NumberOfAtoms       2
NumberOfSpecies     1
MD.Use-Struct-File  T   # Structural information is read from md_anneal.STRUCT_IN
%block ChemicalSpeciesLabel
 1  14  Si
%endblock ChemicalSpeciesLabel
PAO.BasisSize       SZ
MeshCutoff          100.0 Ry
%block kgrid-monkhorst-pack
  2 0 0  0.5
  0 2 0  0.5
  0 0 2  0.5
%endblock kgrid-monkhorst-pack
SolutionMethod       diagon
ElectronicTemperature  100 K
HarrisFunctional T
WriteMDHistory T
MD.TypeOfRun         anneal
MD.AnnealOption  TemperatureAndPressure
MD.InitialTemperature 100 K
MD.TargetTemperature 600 K
MD.TargetPressure 40 GPa
MD.LengthTimeStep  1 fs
MD.TauRelax       25 fs
MD.FinalTimeStep  100
************************** End of input data file *****************************

reinit: -----------------------------------------------------------------------
reinit: System Name: Primitive silicon, Annealing, Harris, Struct File
reinit: -----------------------------------------------------------------------
reinit: System Label: md_anneal                                                   
reinit: -----------------------------------------------------------------------

initatom: Reading input for the pseudopotentials and atomic orbitals ----------
 Species number:            1  Label: Si Atomic number:          14
Ground state valence configuration:   3s02  3p02
Reading pseudopotential information in formatted form from Si.psf

Valence configuration for pseudopotential generation:
3s( 2.00) rc: 1.89
3p( 2.00) rc: 1.89
3d( 0.00) rc: 1.89
4f( 0.00) rc: 1.89
For Si, standard SIESTA heuristics set lmxkb to 2
 (one more than the basis l, including polarization orbitals).
Use PS.lmax or PS.KBprojectors blocks to override.

<basis_specs>
===============================================================================
Si                   Z=  14    Mass=  28.090        Charge= 0.17977+309
Lmxo=1 Lmxkb= 2    BasisType=split      Semic=F
L=0  Nsemic=0  Cnfigmx=3
          n=1  nzeta=1  polorb=0
            splnorm:   0.15000    
               vcte:    0.0000    
               rinn:    0.0000    
                rcs:    0.0000    
            lambdas:    1.0000    
L=1  Nsemic=0  Cnfigmx=3
          n=1  nzeta=1  polorb=0
            splnorm:   0.15000    
               vcte:    0.0000    
               rinn:    0.0000    
                rcs:    0.0000    
            lambdas:    1.0000    
-------------------------------------------------------------------------------
L=0  Nkbl=1  erefs: 0.17977+309
L=1  Nkbl=1  erefs: 0.17977+309
L=2  Nkbl=1  erefs: 0.17977+309
===============================================================================
</basis_specs>

atom: Called for Si                    (Z =  14)

read_vps: Pseudopotential generation method:
read_vps: ATM3      Troullier-Martins                       
Total valence charge:    4.00000

xc_check: Exchange-correlation functional:
xc_check: Ceperley-Alder
V l=0 = -2*Zval/r beyond r=  2.5494
V l=1 = -2*Zval/r beyond r=  2.5494
V l=2 = -2*Zval/r beyond r=  2.5494
All V_l potentials equal beyond r=  1.8652
This should be close to max(r_c) in ps generation
All pots = -2*Zval/r beyond r=  2.5494
Using large-core scheme for Vlocal

atom: Estimated core radius    2.54944

atom: Including non-local core corrections could be a good idea
atom: Maximum radius for 4*pi*r*r*local-pseudopot. charge    2.85303
atom: Maximum radius for r*vlocal+2*Zval:    2.58151
GHOST: No ghost state for L =  0
GHOST: No ghost state for L =  1
GHOST: No ghost state for L =  2

KBgen: Kleinman-Bylander projectors: 
   l= 0   rc=  1.936440   el= -0.796617   Ekb=  4.661340   kbcos=  0.299756
   l= 1   rc=  1.936440   el= -0.307040   Ekb=  1.494238   kbcos=  0.301471
   l= 2   rc=  1.936440   el=  0.002313   Ekb= -2.808672   kbcos= -0.054903

KBgen: Total number of  Kleinman-Bylander projectors:    9
atom: -------------------------------------------------------------------------

atom: SANKEY-TYPE ORBITALS:

SPLIT: Orbitals with angular momentum L= 0

SPLIT: Basis orbitals for state 3s

SPLIT: PAO cut-off radius determined from an
SPLIT: energy shift=  0.020000 Ry

   izeta = 1
                 lambda =    1.000000
                     rc =    5.007352
                 energy =   -0.777669
                kinetic =    0.573829
    potential(screened) =   -1.351499
       potential(ionic) =   -3.827441

SPLIT: Orbitals with angular momentum L= 1

SPLIT: Basis orbitals for state 3p

SPLIT: PAO cut-off radius determined from an
SPLIT: energy shift=  0.020000 Ry

   izeta = 1
                 lambda =    1.000000
                     rc =    6.270866
                 energy =   -0.288955
                kinetic =    0.877930
    potential(screened) =   -1.166885
       potential(ionic) =   -3.426998
atom: Total number of Sankey-type orbitals:  4

atm_pop: Valence configuration (for local Pseudopot. screening):
 3s( 2.00)                                                            
 3p( 2.00)                                                            
Vna: chval, zval:    4.00000   4.00000

Vna:  Cut-off radius for the neutral-atom potential:   6.270866

atom: _________________________________________________________________________

prinput: Basis input ----------------------------------------------------------

PAO.BasisType split     

%block ChemicalSpeciesLabel
    1   14 Si                      # Species index, atomic number, species label
%endblock ChemicalSpeciesLabel

%block PAO.Basis                 # Define Basis set
Si                    2                    # Species label, number of l-shells
 n=3   0   1                         # n, l, Nzeta 
   5.007   
   1.000   
 n=3   1   1                         # n, l, Nzeta 
   6.271   
   1.000   
%endblock PAO.Basis

prinput: ----------------------------------------------------------------------

Dumping basis to NetCDF file Si.ion.nc
  -- Read structural information from md_anneal.STRUCT_IN

siesta: Atomic coordinates (Bohr) and species
siesta:      0.00000   0.00000   0.00000  1        1
siesta:      2.56530   2.56530   2.56530  1        2

siesta: System type = bulk      

initatomlists: Number of atoms, orbitals, and projectors:      2     8    18

siesta: ******************** Simulation parameters ****************************
siesta:
siesta: The following are some of the parameters of the simulation.
siesta: A complete list of the parameters used, including default values,
siesta: can be found in file out.fdf
siesta:
redata: Non-Collinear-spin run           =     F
redata: SpinPolarized (Up/Down) run      =     F
redata: Number of spin components        =     1
redata: Long output                      =     F
redata: Number of Atomic Species         =        1
redata: Charge density info will appear in .RHO file
redata: Write Mulliken Pop.              =     NO
redata: Mesh Cutoff                      =   100.0000  Ry
redata: Net charge of the system         =     0.0000 |e|
redata: Max. number of SCF Iter          =       50
redata: Mixing is linear
redata: Mix DM in first SCF step ?       =     F
redata: Write Pulay info on disk?        =     F
redata: Discard 1st Pulay DM after  kick =     F
redata: New DM Mixing Weight             =     0.2500
redata: New DM Occupancy tolerance       = 0.000000000001
redata: No kicks to SCF
redata: DM Mixing Weight for Kicks       =     0.5000
redata: DM Tolerance for SCF             =     0.000100
redata: Require Energy convergence for SCF =     F
redata: DM Energy tolerance for SCF      =     0.000100 eV
redata: Require Harris convergence for SCF =     F
redata: DM Harris energy tolerance for SCF =     0.000100 eV
redata: Using Saved Data (generic)   =     F
redata: Use continuation files for DM    =     F
redata: Neglect nonoverlap interactions  =     F
redata: Method of Calculation            =     Diagonalization
redata: Divide and Conquer               =     T
redata: Electronic Temperature           =     0.0006  Ry
redata: Fix the spin of the system       =     F
redata: Dynamics option                  =     Annealing MD run
redata: Initial MD time step             =        1
redata:   Final MD time step             =      100
redata: Length of MD time step           =     1.0000  fs
redata: Initial Temperature of MD run    =   100.0000  K
redata: Annealing Option                 = Temperature and Pressure
redata: Target Temperature               =   600.0000  Kelvin
redata: Target Pressure                  =     0.0027  Ry/Bohr**3
redata: Annealing Relaxation Time        =    25.0000  fs
redata: Approx. Bulk Modulus             =     0.0068  Ry/Bohr**3
redata: ***********************************************************************
Total number of electrons:     8.000000
Total ionic charge:     8.000000

* ProcessorY, Blocksize:    2   2

 Kpoints in:            4 . Kpoints trimmed:            4

siesta: k-grid: Number of k-points =     4
siesta: k-grid: Cutoff (effective) =     3.840 Ang
siesta: k-grid: Supercell and displacements
siesta: k-grid:    2   0   0      0.500
siesta: k-grid:    0   2   0      0.500
siesta: k-grid:    0   0   2      0.500
Naive supercell factors:     5    5    5

superc: Internal auxiliary supercell:     5 x     5 x     5  =     125
superc: Number of atoms, orbitals, and projectors:    250   1000   2250

* Maximum dynamic memory allocated =     1 MB

siesta:                 ==============================
                            Begin MD step =      1
                        ==============================

superc: Internal auxiliary supercell:     5 x     5 x     5  =     125
superc: Number of atoms, orbitals, and projectors:    250   1000   2250

outcell: Unit cell vectors (Ang):
        2.715000    2.715000    0.000000
        0.000000    2.715000    2.715000
        2.715000    0.000000    2.715000

outcell: Cell vector modules (Ang)   :    3.839590    3.839590    3.839590
outcell: Cell angles (23,13,12) (deg):     60.0000     60.0000     60.0000
outcell: Cell volume (Ang**3)        :     40.0258
New_DM. Step:     1
Initializing Density Matrix...

InitMesh: MESH =    20 x    20 x    20 =        8000
InitMesh: Mesh cutoff (required, used) =   100.000   112.482 Ry

* Maximum dynamic memory allocated =     3 MB

stepf: Fermi-Dirac step function

siesta: Program's energy decomposition (eV):
siesta: Ebs     =       -74.777570
siesta: Eions   =       380.802124
siesta: Ena     =       115.502327
siesta: Ekin    =        78.997046
siesta: Enl     =        35.834927
siesta: DEna    =         0.000000
siesta: DUscf   =         0.000000
siesta: DUext   =         0.000000
siesta: Exc     =       -64.548619
siesta: eta*DQ  =         0.000000
siesta: Emadel  =         0.000000
siesta: Emeta   =         0.000000
siesta: Emolmec =         0.000000
siesta: Ekinion =         0.000000
siesta: Eharris =      -213.847468
siesta: Etot    =      -215.016442
siesta: FreeEng =      -215.016442

siesta: Eharris(eV) =    -213.847468


siesta: Eharris(eV) =    -213.847468

timer: Routine,Calls,Time,% = IterSCF        1       0.786  58.05
elaps: Routine,Calls,Wall,% = IterSCF        1       0.198  57.06

siesta: E_KS - E_eggbox =      -213.7687

siesta: Atomic forces (eV/Ang):
----------------------------------------
   Tot    0.000001    0.000000    0.000001
----------------------------------------
   Max    0.193665
   Res    0.193665    sqrt( Sum f_i^2 / 3N )
----------------------------------------
   Max    0.193665    constrained

Stress-tensor-Voigt (kbar):      -58.68      -59.16      -58.45       81.71       81.41       81.18
(Free)E + p*V (eV/cell)     -212.3006
Target enthalpy (eV/cell)     -203.7759

siesta: Stress tensor (static) (eV/Ang**3):
        -0.036465    0.050723    0.050723
         0.050723   -0.036465    0.050723
         0.050723    0.050723   -0.036465

siesta: Pressure (static):         58.42369208  kBar

siesta: Stress tensor (total) (eV/Ang**3):
        -0.036628    0.050997    0.050668
         0.050997   -0.036925    0.050814
         0.050668    0.050814   -0.036483

siesta: Pressure (total):         58.76613515  kBar
 Anneal: Kinetic Energy=   9.49999240476900311E-004
 Anneal: Velocity scale factor =    1.0954451178403224     
 Anneal: Cell scale factor =   0.98624375299432876     

siesta: Temp_ion =     120.000 K

* Maximum dynamic memory allocated =     4 MB

siesta:                 ==============================
                            Begin MD step =      2
                        ==============================

superc: Internal auxiliary supercell:     5 x     5 x     5  =     125
superc: Number of atoms, orbitals, and projectors:    250   1000   2250

outcell: Unit cell vectors (Ang):
        2.677683    2.706102    0.000000
        0.000000    2.677746    2.706141
        2.706171    0.000000    2.677652

outcell: Cell vector modules (Ang)   :    3.806964    3.807036    3.806991
outcell: Cell angles (23,13,12) (deg):     60.0026     60.0012     60.0017
outcell: Cell volume (Ang**3)        :     39.0167
New_DM. Step:     2
Initializing Density Matrix...

InitMesh: MESH =    20 x    20 x    20 =        8000
InitMesh: Mesh cutoff (required, used) =   100.000   114.407 Ry

siesta: Eharris(eV) =    -213.708561


siesta: Eharris(eV) =    -213.708561


siesta: Atomic forces (eV/Ang):
----------------------------------------
   Tot   -0.000000    0.000000    0.000001
----------------------------------------
   Max    0.257019
   Res    0.194525    sqrt( Sum f_i^2 / 3N )
----------------------------------------
   Max    0.257019    constrained

Stress-tensor-Voigt (kbar):      -83.70      -83.97      -83.48       85.20       83.11       88.12
(Free)E + p*V (eV/cell)     -211.5986
Target enthalpy (eV/cell)     -203.8965

siesta: Stress tensor (static) (eV/Ang**3):
        -0.052042    0.052846    0.055061
         0.052846   -0.051852    0.051766
         0.055061    0.051766   -0.052083

siesta: Pressure (static):         83.30205371  kBar

siesta: Stress tensor (total) (eV/Ang**3):
        -0.052243    0.053180    0.054997
         0.053180   -0.052407    0.051872
         0.054997    0.051872   -0.052104

siesta: Pressure (total):         83.71651739  kBar
 Anneal: Kinetic Energy=   1.29937230708084602E-003
 Anneal: Velocity scale factor =    1.0655839729322583     
 Anneal: Cell scale factor =   0.98725908083870395     

siesta: Temp_ion =     155.305 K

* Maximum dynamic memory allocated =     4 MB

siesta:                 ==============================
                            Begin MD step =      3
                        ==============================

superc: Internal auxiliary supercell:     5 x     5 x     5  =     125
superc: Number of atoms, orbitals, and projectors:    250   1000   2250

outcell: Unit cell vectors (Ang):
        2.643605    2.696843    0.000000
        0.000000    2.643703    2.697120
        2.696623    0.000000    2.643536

outcell: Cell vector modules (Ang)   :    3.776454    3.776721    3.776250
outcell: Cell angles (23,13,12) (deg):     60.0046     60.0075     60.0077
outcell: Cell volume (Ang**3)        :     38.0899
New_DM. Step:     3
Initializing Density Matrix...

InitMesh: MESH =    20 x    20 x    20 =        8000
InitMesh: Mesh cutoff (required, used) =   100.000   116.241 Ry

siesta: Eharris(eV) =    -213.562731


siesta: Eharris(eV) =    -213.562731


siesta: Atomic forces (eV/Ang):
----------------------------------------
   Tot   -0.000000    0.000000    0.000000
----------------------------------------
   Max    0.343741
   Res    0.213715    sqrt( Sum f_i^2 / 3N )
----------------------------------------
   Max    0.343741    constrained

Stress-tensor-Voigt (kbar):     -122.47     -122.70     -122.75       89.05       85.89       96.64
(Free)E + p*V (eV/cell)     -210.5829
Target enthalpy (eV/cell)     -203.9891

siesta: Stress tensor (static) (eV/Ang**3):
        -0.076138    0.055123    0.060417
         0.055123   -0.075888    0.053456
         0.060417    0.053456   -0.076581

siesta: Pressure (static):        122.09078207  kBar

siesta: Stress tensor (total) (eV/Ang**3):
        -0.076440    0.055581    0.060316
         0.055581   -0.076582    0.053610
         0.060316    0.053610   -0.076615

siesta: Pressure (total):        122.64074466  kBar
 Anneal: Kinetic Energy=   1.57073943889815223E-003
 Anneal: Velocity scale factor =    1.0512632651771245     
 Anneal: Cell scale factor =   0.98884904152526087     

siesta: Temp_ion =     182.727 K

* Maximum dynamic memory allocated =     4 MB

siesta:                 ==============================
                            Begin MD step =      4
                        ==============================

superc: Internal auxiliary supercell:     5 x     5 x     5  =     125
superc: Number of atoms, orbitals, and projectors:    250   1000   2250

outcell: Unit cell vectors (Ang):
        2.614109    2.687201    0.000000
        0.000000    2.614232    2.687829
        2.686187    0.000000    2.614058

outcell: Cell vector modules (Ang)   :    3.748949    3.749484    3.748186
outcell: Cell angles (23,13,12) (deg):     60.0035     60.0183     60.0157
outcell: Cell volume (Ang**3)        :     37.2658
New_DM. Step:     4
Initializing Density Matrix...

InitMesh: MESH =    20 x    20 x    20 =        8000
InitMesh: Mesh cutoff (required, used) =   100.000   117.928 Ry

siesta: Eharris(eV) =    -213.409669


siesta: Eharris(eV) =    -213.409669


siesta: Atomic forces (eV/Ang):
----------------------------------------
   Tot    0.000000    0.000000    0.000000
----------------------------------------
   Max    0.428021
   Res    0.254103    sqrt( Sum f_i^2 / 3N )
----------------------------------------
   Max    0.428021    constrained

Stress-tensor-Voigt (kbar):     -156.51     -155.80     -156.27       89.60       86.07      106.53
(Free)E + p*V (eV/cell)     -209.7186
Target enthalpy (eV/cell)     -204.0478

siesta: Stress tensor (static) (eV/Ang**3):
        -0.097285    0.055361    0.066627
         0.055361   -0.096451    0.053524
         0.066627    0.053524   -0.097484

siesta: Pressure (static):        155.53050865  kBar

siesta: Stress tensor (total) (eV/Ang**3):
        -0.097685    0.055924    0.066487
         0.055924   -0.097242    0.053721
         0.066487    0.053721   -0.097533

siesta: Pressure (total):        156.19276374  kBar
 Anneal: Kinetic Energy=   1.76097395667471307E-003
 Anneal: Velocity scale factor =    1.0437785711453951     
 Anneal: Cell scale factor =   0.99020387274093935     

siesta: Temp_ion =     201.951 K

* Maximum dynamic memory allocated =     4 MB

siesta:                 ==============================
                            Begin MD step =      5
                        ==============================

superc: Internal auxiliary supercell:     5 x     5 x     5  =     125
superc: Number of atoms, orbitals, and projectors:    250   1000   2250

outcell: Unit cell vectors (Ang):
        2.588537    2.677540    0.000000
        0.000000    2.588580    2.678552
        2.674723    0.000000    2.588450

outcell: Cell vector modules (Ang)   :    3.724210    3.724968    3.722126
outcell: Cell angles (23,13,12) (deg):     59.9957     60.0352     60.0251
outcell: Cell volume (Ang**3)        :     36.5272
New_DM. Step:     5
Initializing Density Matrix...

InitMesh: MESH =    20 x    20 x    20 =        8000
InitMesh: Mesh cutoff (required, used) =   100.000   119.448 Ry

siesta: Eharris(eV) =    -213.254491


siesta: Eharris(eV) =    -213.254491


siesta: Atomic forces (eV/Ang):
----------------------------------------
   Tot   -0.000000    0.000001   -0.000000
----------------------------------------
   Max    0.485875
   Res    0.291382    sqrt( Sum f_i^2 / 3N )
----------------------------------------
   Max    0.485875    constrained

Stress-tensor-Voigt (kbar):     -181.00     -181.00     -180.74       93.82       86.66      113.09
(Free)E + p*V (eV/cell)     -209.0772
Target enthalpy (eV/cell)     -204.0824

siesta: Stress tensor (static) (eV/Ang**3):
        -0.112481    0.057915    0.070762
         0.057915   -0.112123    0.053852
         0.070762    0.053852   -0.112742

siesta: Pressure (static):        180.16421012  kBar

siesta: Stress tensor (total) (eV/Ang**3):
        -0.112968    0.058558    0.070585
         0.058558   -0.112971    0.054085
         0.070585    0.054085   -0.112806

siesta: Pressure (total):        180.91165730  kBar
 Anneal: Kinetic Energy=   1.88394924244224878E-003
 Anneal: Velocity scale factor =    1.0397222105731454     
 Anneal: Cell scale factor =   0.99119187668234099     

siesta: Temp_ion =     214.378 K

* Maximum dynamic memory allocated =     4 MB

siesta:                 ==============================
                            Begin MD step =      6
                        ==============================

superc: Internal auxiliary supercell:     5 x     5 x     5  =     125
superc: Number of atoms, orbitals, and projectors:    250   1000   2250

outcell: Unit cell vectors (Ang):
        2.565773    2.667462    0.000000
        0.000000    2.565809    2.669245
        2.662603    0.000000    2.565651

outcell: Cell vector modules (Ang)   :    3.701155    3.702465    3.697569
outcell: Cell angles (23,13,12) (deg):     59.9841     60.0532     60.0362
outcell: Cell volume (Ang**3)        :     35.8484
New_DM. Step:     6
Initializing Density Matrix...

InitMesh: MESH =    20 x    20 x    20 =        8000
InitMesh: Mesh cutoff (required, used) =   100.000   120.881 Ry

siesta: Eharris(eV) =    -213.099405


siesta: Eharris(eV) =    -213.099405


siesta: Atomic forces (eV/Ang):
----------------------------------------
   Tot    0.000001    0.000001   -0.000001
----------------------------------------
   Max    0.570171
   Res    0.352907    sqrt( Sum f_i^2 / 3N )
----------------------------------------
   Max    0.570171    constrained

Stress-tensor-Voigt (kbar):     -203.31     -202.82     -203.52       95.38       84.43      121.35
(Free)E + p*V (eV/cell)     -208.5045
Target enthalpy (eV/cell)     -204.1016

siesta: Stress tensor (static) (eV/Ang**3):
        -0.126332    0.058832    0.075953
         0.058832   -0.125714    0.052430
         0.075953    0.052430   -0.126948

siesta: Pressure (static):        202.40734893  kBar

siesta: Stress tensor (total) (eV/Ang**3):
        -0.126893    0.059532    0.075741
         0.059532   -0.126589    0.052694
         0.075741    0.052694   -0.127028

siesta: Pressure (total):        203.21635445  kBar
 Anneal: Kinetic Energy=   1.94695558125719211E-003
 Anneal: Velocity scale factor =    1.0378370858636425     
 Anneal: Cell scale factor =   0.99211100142487851     

siesta: Temp_ion =     220.745 K

* Maximum dynamic memory allocated =     4 MB

siesta:                 ==============================
                            Begin MD step =      7
                        ==============================

superc: Internal auxiliary supercell:     5 x     5 x     5  =     125
superc: Number of atoms, orbitals, and projectors:    250   1000   2250

outcell: Unit cell vectors (Ang):
        2.545515    2.657260    0.000000
        0.000000    2.545492    2.660211
        2.649653    0.000000    2.545411

outcell: Cell vector modules (Ang)   :    3.679766    3.681881    3.674204
outcell: Cell angles (23,13,12) (deg):     59.9641     60.0752     60.0498
outcell: Cell volume (Ang**3)        :     35.2233
New_DM. Step:     7
Initializing Density Matrix...

InitMesh: MESH =    20 x    20 x    20 =        8000
InitMesh: Mesh cutoff (required, used) =   100.000   122.212 Ry

siesta: Eharris(eV) =    -212.942842


siesta: Eharris(eV) =    -212.942842


siesta: Atomic forces (eV/Ang):
----------------------------------------
   Tot   -0.000001    0.000001    0.000000
----------------------------------------
   Max    0.698651
   Res    0.447438    sqrt( Sum f_i^2 / 3N )
----------------------------------------
   Max    0.698651    constrained

Stress-tensor-Voigt (kbar):     -233.85     -233.16     -235.11       96.96       83.96      131.16
(Free)E + p*V (eV/cell)     -207.7539
Target enthalpy (eV/cell)     -204.1054

siesta: Stress tensor (static) (eV/Ang**3):
        -0.145339    0.059785    0.082104
         0.059785   -0.144651    0.052115
         0.082104    0.052115   -0.146646

siesta: Pressure (static):        233.19255165  kBar

siesta: Stress tensor (total) (eV/Ang**3):
        -0.145958    0.060520    0.081860
         0.060520   -0.145525    0.052405
         0.081860    0.052405   -0.146743

siesta: Pressure (total):        234.04074619  kBar
 Anneal: Kinetic Energy=   1.93703888744647577E-003
 Anneal: Velocity scale factor =    1.0381258793745554     
 Anneal: Cell scale factor =   0.99338371032587769     

siesta: Temp_ion =     219.743 K

* Maximum dynamic memory allocated =     4 MB

siesta:                 ==============================
                            Begin MD step =      8
                        ==============================

superc: Internal auxiliary supercell:     5 x     5 x     5  =     125
superc: Number of atoms, orbitals, and projectors:    250   1000   2250

outcell: Unit cell vectors (Ang):
        2.528548    2.646932    0.000000
        0.000000    2.528442    2.651258
        2.635720    0.000000    2.528569

outcell: Cell vector modules (Ang)   :    3.660574    3.663630    3.652490
outcell: Cell angles (23,13,12) (deg):     59.9347     60.1017     60.0635
outcell: Cell volume (Ang**3)        :     34.6626
New_DM. Step:     8
Initializing Density Matrix...

InitMesh: MESH =    20 x    18 x    18 =        6480
InitMesh: Mesh cutoff (required, used) =   100.000   100.127 Ry

siesta: Eharris(eV) =    -212.784908


siesta: Eharris(eV) =    -212.784908


siesta: Atomic forces (eV/Ang):
----------------------------------------
   Tot    0.001295    0.007409   -0.036894
----------------------------------------
   Max    0.762605
   Res    0.496258    sqrt( Sum f_i^2 / 3N )
----------------------------------------
   Max    0.762605    constrained

Stress-tensor-Voigt (kbar):     -266.31     -265.91     -268.12       98.50       83.07      142.06
(Free)E + p*V (eV/cell)     -206.9732
Target enthalpy (eV/cell)     -204.0911

siesta: Stress tensor (static) (eV/Ang**3):
        -0.165563    0.060737    0.088936
         0.060737   -0.165124    0.051542
         0.088936    0.051542   -0.167233

siesta: Pressure (static):        265.92150550  kBar

siesta: Stress tensor (total) (eV/Ang**3):
        -0.166219    0.061479    0.088664
         0.061479   -0.165963    0.051850
         0.088664    0.051850   -0.167346

siesta: Pressure (total):        266.78008924  kBar
 Anneal: Kinetic Energy=   1.87557695451105494E-003
 Anneal: Velocity scale factor =    1.0399819710160023     
 Anneal: Cell scale factor =   0.99471210629197371     

siesta: Temp_ion =     213.532 K

* Maximum dynamic memory allocated =     4 MB

siesta:                 ==============================
                            Begin MD step =      9
                        ==============================

superc: Internal auxiliary supercell:     5 x     5 x     5  =     125
superc: Number of atoms, orbitals, and projectors:    250   1000   2250

outcell: Unit cell vectors (Ang):
        2.514994    2.636485    0.000000
        0.000000    2.514834    2.642431
        2.620705    0.000000    2.515199

outcell: Cell vector modules (Ang)   :    3.643658    3.647853    3.632399
outcell: Cell angles (23,13,12) (deg):     59.8950     60.1326     60.0768
outcell: Cell volume (Ang**3)        :     34.1658
New_DM. Step:     9
Initializing Density Matrix...

InitMesh: MESH =    18 x    18 x    18 =        5832
InitMesh: Mesh cutoff (required, used) =   100.000   100.801 Ry

siesta: Eharris(eV) =    -212.633476


siesta: Eharris(eV) =    -212.633476


siesta: Atomic forces (eV/Ang):
----------------------------------------
   Tot   -0.004994    0.024325    0.015617
----------------------------------------
   Max    0.831709
   Res    0.554845    sqrt( Sum f_i^2 / 3N )
----------------------------------------
   Max    0.831709    constrained

Stress-tensor-Voigt (kbar):     -293.92     -292.73     -294.56      102.05       80.49      151.40
(Free)E + p*V (eV/cell)     -206.3327
Target enthalpy (eV/cell)     -204.0667

siesta: Stress tensor (static) (eV/Ang**3):
        -0.182778    0.062967    0.094794
         0.062967   -0.181922    0.049920
         0.094794    0.049920   -0.183716

siesta: Pressure (static):        292.88944087  kBar

siesta: Stress tensor (total) (eV/Ang**3):
        -0.183451    0.063693    0.094497
         0.063693   -0.182704    0.050240
         0.094497    0.050240   -0.183847

siesta: Pressure (total):        293.73644552  kBar
 Anneal: Kinetic Energy=   1.78942997100624865E-003
 Anneal: Velocity scale factor =    1.0427918194040571     
 Anneal: Cell scale factor =   0.99577493410388485     

siesta: Temp_ion =     204.827 K

* Maximum dynamic memory allocated =     4 MB

siesta:                 ==============================
                            Begin MD step =     10
                        ==============================

superc: Internal auxiliary supercell:     5 x     5 x     5  =     125
superc: Number of atoms, orbitals, and projectors:    250   1000   2250

outcell: Unit cell vectors (Ang):
        2.504301    2.625705    0.000000
        0.000000    2.504009    2.633907
        2.604790    0.000000    2.504572

outcell: Cell vector modules (Ang)   :    3.628478    3.634216    3.613560
outcell: Cell angles (23,13,12) (deg):     59.8458     60.1648     60.0930
outcell: Cell volume (Ang**3)        :     33.7200
New_DM. Step:    10
Initializing Density Matrix...

InitMesh: MESH =    18 x    18 x    18 =        5832
InitMesh: Mesh cutoff (required, used) =   100.000   101.548 Ry

siesta: Eharris(eV) =    -212.487135


siesta: Eharris(eV) =    -212.487135


siesta: Atomic forces (eV/Ang):
----------------------------------------
   Tot   -0.001517   -0.007022   -0.001996
----------------------------------------
   Max    0.905724
   Res    0.631925    sqrt( Sum f_i^2 / 3N )
----------------------------------------
   Max    0.905724    constrained

Stress-tensor-Voigt (kbar):     -318.99     -316.93     -319.06      106.22       78.88      156.01
(Free)E + p*V (eV/cell)     -205.7531
Target enthalpy (eV/cell)     -204.0343

siesta: Stress tensor (static) (eV/Ang**3):
        -0.198422    0.065603    0.097698
         0.065603   -0.197101    0.048900
         0.097698    0.048900   -0.198988

siesta: Pressure (static):        317.50689040  kBar

siesta: Stress tensor (total) (eV/Ang**3):
        -0.199098    0.066297    0.097376
         0.066297   -0.197813    0.049231
         0.097376    0.049231   -0.199142

siesta: Pressure (total):        318.33045008  kBar
 Anneal: Kinetic Energy=   1.67399121923061142E-003
 Anneal: Velocity scale factor =    1.0469963351895182     
 Anneal: Cell scale factor =   0.99675911786391891     

siesta: Temp_ion =     193.161 K

* Maximum dynamic memory allocated =     4 MB

siesta:                 ==============================
                            Begin MD step =     11
                        ==============================

superc: Internal auxiliary supercell:     5 x     5 x     5  =     125
superc: Number of atoms, orbitals, and projectors:    250   1000   2250

outcell: Unit cell vectors (Ang):
        2.496172    2.614533    0.000000
        0.000000    2.495663    2.625582
        2.588488    0.000000    2.496455

outcell: Cell vector modules (Ang)   :    3.614783    3.622432    3.596187
outcell: Cell angles (23,13,12) (deg):     59.7907     60.1953     60.1119
outcell: Cell volume (Ang**3)        :     33.3210
New_DM. Step:    11
Initializing Density Matrix...

InitMesh: MESH =    18 x    18 x    18 =        5832
InitMesh: Mesh cutoff (required, used) =   100.000   102.215 Ry

siesta: Eharris(eV) =    -212.347050


siesta: Eharris(eV) =    -212.347050


siesta: Atomic forces (eV/Ang):
----------------------------------------
   Tot   -0.015786    0.015364   -0.009966
----------------------------------------
   Max    1.000535
   Res    0.704491    sqrt( Sum f_i^2 / 3N )
----------------------------------------
   Max    1.000535    constrained

Stress-tensor-Voigt (kbar):     -342.07     -342.21     -342.08      106.23       78.32      163.17
(Free)E + p*V (eV/cell)     -205.1997
Target enthalpy (eV/cell)     -203.9960

siesta: Stress tensor (static) (eV/Ang**3):
        -0.212843    0.065657    0.102190
         0.065657   -0.212959    0.048544
         0.102190    0.048544   -0.213323

siesta: Pressure (static):        341.33427092  kBar

siesta: Stress tensor (total) (eV/Ang**3):
        -0.213502    0.066302    0.101843
         0.066302   -0.213590    0.048883
         0.101843    0.048883   -0.213505

siesta: Pressure (total):        342.12066547  kBar
 Anneal: Kinetic Energy=   1.53563241139408166E-003
 Anneal: Velocity scale factor =    1.0528404043488475     
 Anneal: Cell scale factor =   0.99768251657351970     

siesta: Temp_ion =     179.180 K

* Maximum dynamic memory allocated =     4 MB

siesta:                 ==============================
                            Begin MD step =     12
                        ==============================

superc: Internal auxiliary supercell:     5 x     5 x     5  =     125
superc: Number of atoms, orbitals, and projectors:    250   1000   2250

outcell: Unit cell vectors (Ang):
        2.490377    2.603410    0.000000
        0.000000    2.489873    2.617343
        2.571542    0.000000    2.490669

outcell: Cell vector modules (Ang)   :    3.602738    3.612472    3.579980
outcell: Cell angles (23,13,12) (deg):     59.7303     60.2293     60.1282
outcell: Cell volume (Ang**3)        :     32.9665
New_DM. Step:    12
Initializing Density Matrix...

InitMesh: MESH =    18 x    18 x    18 =        5832
InitMesh: Mesh cutoff (required, used) =   100.000   102.792 Ry

siesta: Eharris(eV) =    -212.214421


siesta: Eharris(eV) =    -212.214421


siesta: Atomic forces (eV/Ang):
----------------------------------------
   Tot   -0.031997    0.002261   -0.003901
----------------------------------------
   Max    1.043467
   Res    0.752175    sqrt( Sum f_i^2 / 3N )
----------------------------------------
   Max    1.043467    constrained

Stress-tensor-Voigt (kbar):     -369.37     -366.50     -366.88      105.20       75.75      168.91
(Free)E + p*V (eV/cell)     -204.6206
Target enthalpy (eV/cell)     -203.9537

siesta: Stress tensor (static) (eV/Ang**3):
        -0.229911    0.065076    0.105790
         0.065076   -0.228213    0.046941
         0.105790    0.046941   -0.228772

siesta: Pressure (static):        366.84732838  kBar

siesta: Stress tensor (total) (eV/Ang**3):
        -0.230539    0.065657    0.105422
         0.065657   -0.228751    0.047281
         0.105422    0.047281   -0.228988

siesta: Pressure (total):        367.58503096  kBar
 Anneal: Kinetic Energy=   1.39865852564567466E-003
 Anneal: Velocity scale factor =    1.0597231786962786     
 Anneal: Cell scale factor =   0.99867720242656710     

siesta: Temp_ion =     165.338 K

* Maximum dynamic memory allocated =     4 MB

siesta:                 ==============================
                            Begin MD step =     13
                        ==============================

superc: Internal auxiliary supercell:     5 x     5 x     5  =     125
superc: Number of atoms, orbitals, and projectors:    250   1000   2250

outcell: Unit cell vectors (Ang):
        2.487319    2.592444    0.000000
        0.000000    2.486519    2.609401
        2.554113    0.000000    2.487375

outcell: Cell vector modules (Ang)   :    3.592704    3.604407    3.565182
outcell: Cell angles (23,13,12) (deg):     59.6629     60.2653     60.1461
outcell: Cell volume (Ang**3)        :     32.6617
New_DM. Step:    13
Initializing Density Matrix...

InitMesh: MESH =    18 x    18 x    18 =        5832
InitMesh: Mesh cutoff (required, used) =   100.000   103.250 Ry

siesta: Eharris(eV) =    -212.093660


siesta: Eharris(eV) =    -212.093660


siesta: Atomic forces (eV/Ang):
----------------------------------------
   Tot   -0.023744    0.004248   -0.008353
----------------------------------------
   Max    1.070219
   Res    0.785784    sqrt( Sum f_i^2 / 3N )
----------------------------------------
   Max    1.070219    constrained

Stress-tensor-Voigt (kbar):     -392.61     -388.12     -387.51      106.67       72.92      176.46
(Free)E + p*V (eV/cell)     -204.1262
Target enthalpy (eV/cell)     -203.9104

siesta: Stress tensor (static) (eV/Ang**3):
        -0.244455    0.066068    0.110526
         0.066068   -0.241805    0.045178
         0.110526    0.045178   -0.241606

siesta: Pressure (static):        388.72725467  kBar

siesta: Stress tensor (total) (eV/Ang**3):
        -0.245043    0.066577    0.110136
         0.066577   -0.242245    0.045516
         0.110135    0.045516   -0.241865

siesta: Pressure (total):        389.41472596  kBar
 Anneal: Kinetic Energy=   1.28191630803724038E-003
 Anneal: Velocity scale factor =    1.0667045454650685     
 Anneal: Cell scale factor =   0.99950420967145492     

siesta: Temp_ion =     153.541 K

* Maximum dynamic memory allocated =     4 MB

siesta:                 ==============================
                            Begin MD step =     14
                        ==============================

superc: Internal auxiliary supercell:     5 x     5 x     5  =     125
superc: Number of atoms, orbitals, and projectors:    250   1000   2250

outcell: Unit cell vectors (Ang):
        2.486577    2.581371    0.000000
        0.000000    2.485322    2.601779
        2.536026    0.000000    2.486141

outcell: Cell vector modules (Ang)   :    3.584207    3.598066    3.551384
outcell: Cell angles (23,13,12) (deg):     59.5884     60.3032     60.1669
outcell: Cell volume (Ang**3)        :     32.3966
New_DM. Step:    14
Initializing Density Matrix...

InitMesh: MESH =    18 x    18 x    18 =        5832
InitMesh: Mesh cutoff (required, used) =   100.000   103.612 Ry

siesta: Eharris(eV) =    -211.983935


siesta: Eharris(eV) =    -211.983935


siesta: Atomic forces (eV/Ang):
----------------------------------------
   Tot   -0.010874   -0.002148   -0.006880
----------------------------------------
   Max    1.066369
   Res    0.802540    sqrt( Sum f_i^2 / 3N )
----------------------------------------
   Max    1.066369    constrained

Stress-tensor-Voigt (kbar):     -408.64     -408.30     -404.63      106.94       71.39      182.08
(Free)E + p*V (eV/cell)     -203.7227
Target enthalpy (eV/cell)     -203.8681

siesta: Stress tensor (static) (eV/Ang**3):
        -0.254507    0.066315    0.114058
         0.066315   -0.254494    0.044224
         0.114058    0.044224   -0.252229

siesta: Pressure (static):        406.54617715  kBar

siesta: Stress tensor (total) (eV/Ang**3):
        -0.255049    0.066747    0.113642
         0.066747   -0.254839    0.044555
         0.113642    0.044555   -0.252548

siesta: Pressure (total):        407.19009730  kBar
 Anneal: Kinetic Energy=   1.19572419258805727E-003
 Anneal: Velocity scale factor =    1.0726971968932706     
 Anneal: Cell scale factor =    1.0001902669798097     

siesta: Temp_ion =     144.831 K

* Maximum dynamic memory allocated =     4 MB

siesta:                 ==============================
                            Begin MD step =     15
                        ==============================

superc: Internal auxiliary supercell:     5 x     5 x     5  =     125
superc: Number of atoms, orbitals, and projectors:    250   1000   2250

outcell: Unit cell vectors (Ang):
        2.487430    2.570317    0.000000
        0.000000    2.486133    2.594341
        2.517493    0.000000    2.486614

outcell: Cell vector modules (Ang)   :    3.576847    3.593253    3.538506
outcell: Cell angles (23,13,12) (deg):     59.5110     60.3458     60.1857
outcell: Cell volume (Ang**3)        :     32.1648
New_DM. Step:    15
Initializing Density Matrix...

InitMesh: MESH =    18 x    18 x    18 =        5832
InitMesh: Mesh cutoff (required, used) =   100.000   103.906 Ry

siesta: Eharris(eV) =    -211.884714


siesta: Eharris(eV) =    -211.884714


siesta: Atomic forces (eV/Ang):
----------------------------------------
   Tot   -0.003820   -0.008150    0.004205
----------------------------------------
   Max    1.081244
   Res    0.828557    sqrt( Sum f_i^2 / 3N )
----------------------------------------
   Max    1.081244    constrained

Stress-tensor-Voigt (kbar):     -430.56     -427.90     -421.53      107.03       68.80      187.81
(Free)E + p*V (eV/cell)     -203.2924
Target enthalpy (eV/cell)     -203.8277

siesta: Stress tensor (static) (eV/Ang**3):
        -0.268238    0.066451    0.117665
         0.066451   -0.266819    0.042621
         0.117665    0.042621   -0.262697

siesta: Pressure (static):        426.05231385  kBar

siesta: Stress tensor (total) (eV/Ang**3):
        -0.268731    0.066805    0.117222
         0.066805   -0.267074    0.042940
         0.117222    0.042940   -0.263095

siesta: Pressure (total):        426.66446611  kBar
 Anneal: Kinetic Energy=   1.14214355952328814E-003
 Anneal: Velocity scale factor =    1.0768586203738344     
 Anneal: Cell scale factor =    1.0008675003992911     

siesta: Temp_ion =     139.417 K

* Maximum dynamic memory allocated =     4 MB

siesta:                 ==============================
                            Begin MD step =     16
                        ==============================

superc: Internal auxiliary supercell:     5 x     5 x     5  =     125
superc: Number of atoms, orbitals, and projectors:    250   1000   2250

outcell: Unit cell vectors (Ang):
        2.490461    2.559302    0.000000
        0.000000    2.488893    2.587196
        2.498514    0.000000    2.488772

outcell: Cell vector modules (Ang)   :    3.571053    3.590010    3.526550
outcell: Cell angles (23,13,12) (deg):     59.4300     60.3896     60.2074
outcell: Cell volume (Ang**3)        :     31.9703
New_DM. Step:    16
Initializing Density Matrix...

InitMesh: MESH =    18 x    18 x    18 =        5832
InitMesh: Mesh cutoff (required, used) =   100.000   104.102 Ry

siesta: Eharris(eV) =    -211.799194


siesta: Eharris(eV) =    -211.799194


siesta: Atomic forces (eV/Ang):
----------------------------------------
   Tot   -0.009475    0.005450    0.009681
----------------------------------------
   Max    1.056580
   Res    0.838055    sqrt( Sum f_i^2 / 3N )
----------------------------------------
   Max    1.056580    constrained

Stress-tensor-Voigt (kbar):     -447.51     -443.38     -433.90      108.09       66.50      189.24
(Free)E + p*V (eV/cell)     -202.9614
Target enthalpy (eV/cell)     -203.7915

siesta: Stress tensor (static) (eV/Ang**3):
        -0.278876    0.067194    0.118580
         0.067194   -0.276564    0.041214
         0.118580    0.041214   -0.270313

siesta: Pressure (static):        441.00565835  kBar

siesta: Stress tensor (total) (eV/Ang**3):
        -0.279312    0.067466    0.118111
         0.067466   -0.276735    0.041508
         0.118111    0.041508   -0.270817

siesta: Pressure (total):        441.59895140  kBar
 Anneal: Kinetic Energy=   1.12201412547179415E-003
 Anneal: Velocity scale factor =    1.0785202087421095     
 Anneal: Cell scale factor =    1.0013635240445908     

siesta: Temp_ion =     137.383 K

* Maximum dynamic memory allocated =     4 MB

siesta:                 ==============================
                            Begin MD step =     17
                        ==============================

superc: Internal auxiliary supercell:     5 x     5 x     5  =     125
superc: Number of atoms, orbitals, and projectors:    250   1000   2250

outcell: Unit cell vectors (Ang):
        2.495181    2.548225    0.000000
        0.000000    2.493197    2.580312
        2.479533    0.000000    2.492165

outcell: Cell vector modules (Ang)   :    3.566424    3.588041    3.515533
outcell: Cell angles (23,13,12) (deg):     59.3494     60.4321     60.2324
outcell: Cell volume (Ang**3)        :     31.8072
New_DM. Step:    17
Initializing Density Matrix...

InitMesh: MESH =    18 x    18 x    18 =        5832
InitMesh: Mesh cutoff (required, used) =   100.000   104.228 Ry

siesta: Eharris(eV) =    -211.726500


siesta: Eharris(eV) =    -211.726500


siesta: Atomic forces (eV/Ang):
----------------------------------------
   Tot   -0.018015    0.007404   -0.002447
----------------------------------------
   Max    1.027268
   Res    0.839336    sqrt( Sum f_i^2 / 3N )
----------------------------------------
   Max    1.027268    constrained

Stress-tensor-Voigt (kbar):     -461.33     -457.28     -444.23      107.66       65.29      189.43
(Free)E + p*V (eV/cell)     -202.6826
Target enthalpy (eV/cell)     -203.7602

siesta: Stress tensor (static) (eV/Ang**3):
        -0.287566    0.067006    0.118715
         0.067006   -0.285313    0.040505
         0.118715    0.040505   -0.276624

siesta: Pressure (static):        453.68989121  kBar

siesta: Stress tensor (total) (eV/Ang**3):
        -0.287935    0.067195    0.118231
         0.067195   -0.285409    0.040752
         0.118231    0.040752   -0.277261

siesta: Pressure (total):        454.27814180  kBar
 Anneal: Kinetic Energy=   1.14161746800526165E-003
 Anneal: Velocity scale factor =    1.0769013330922756     
 Anneal: Cell scale factor =    1.0017774890812923     

siesta: Temp_ion =     139.364 K

* Maximum dynamic memory allocated =     4 MB

siesta:                 ==============================
                            Begin MD step =     18
                        ==============================

superc: Internal auxiliary supercell:     5 x     5 x     5  =     125
superc: Number of atoms, orbitals, and projectors:    250   1000   2250

outcell: Unit cell vectors (Ang):
        2.501283    2.537241    0.000000
        0.000000    2.498894    2.573576
        2.460674    0.000000    2.496595

outcell: Cell vector modules (Ang)   :    3.562866    3.587167    3.505410
outcell: Cell angles (23,13,12) (deg):     59.2716     60.4746     60.2585
outcell: Cell volume (Ang**3)        :     31.6725
New_DM. Step:    18
Initializing Density Matrix...

InitMesh: MESH =    18 x    18 x    18 =        5832
InitMesh: Mesh cutoff (required, used) =   100.000   104.293 Ry

siesta: Eharris(eV) =    -211.666656


siesta: Eharris(eV) =    -211.666656


siesta: Atomic forces (eV/Ang):
----------------------------------------
   Tot   -0.015395    0.008307    0.003705
----------------------------------------
   Max    1.035451
   Res    0.834060    sqrt( Sum f_i^2 / 3N )
----------------------------------------
   Max    1.035451    constrained

Stress-tensor-Voigt (kbar):     -474.51     -471.45     -452.60      105.69       62.79      188.15
(Free)E + p*V (eV/cell)     -202.4261
Target enthalpy (eV/cell)     -203.7345

siesta: Stress tensor (static) (eV/Ang**3):
        -0.295868    0.065861    0.117917
         0.065861   -0.294217    0.039017
         0.117917    0.039017   -0.281697

siesta: Pressure (static):        465.58815048  kBar

siesta: Stress tensor (total) (eV/Ang**3):
        -0.296161    0.065966    0.117435
         0.065966   -0.294255    0.039190
         0.117435    0.039190   -0.282490

siesta: Pressure (total):        466.18821630  kBar
 Anneal: Kinetic Energy=   1.20114719147969631E-003
 Anneal: Velocity scale factor =    1.0722958490886378     
 Anneal: Cell scale factor =    1.0021129879497563     

siesta: Temp_ion =     145.379 K

* Maximum dynamic memory allocated =     4 MB

siesta:                 ==============================
                            Begin MD step =     19
                        ==============================

superc: Internal auxiliary supercell:     5 x     5 x     5  =     125
superc: Number of atoms, orbitals, and projectors:    250   1000   2250

outcell: Unit cell vectors (Ang):
        2.508715    2.526504    0.000000
        0.000000    2.506021    2.567122
        2.442080    0.000000    2.501870

outcell: Cell vector modules (Ang)   :    3.560459    3.587514    3.496156
outcell: Cell angles (23,13,12) (deg):     59.1984     60.5168     60.2851
outcell: Cell volume (Ang**3)        :     31.5679
New_DM. Step:    19
Initializing Density Matrix...

InitMesh: MESH =    18 x    18 x    18 =        5832
InitMesh: Mesh cutoff (required, used) =   100.000   104.293 Ry

siesta: Eharris(eV) =    -211.621381


siesta: Eharris(eV) =    -211.621381


siesta: Atomic forces (eV/Ang):
----------------------------------------
   Tot   -0.010117    0.010484    0.001567
----------------------------------------
   Max    1.028190
   Res    0.815672    sqrt( Sum f_i^2 / 3N )
----------------------------------------
   Max    1.028190    constrained

Stress-tensor-Voigt (kbar):     -482.99     -480.16     -455.64      103.68       61.58      185.50
(Free)E + p*V (eV/cell)     -202.2789
Target enthalpy (eV/cell)     -203.7159

siesta: Stress tensor (static) (eV/Ang**3):
        -0.301244    0.064679    0.116230
         0.064679   -0.299684    0.038371
         0.116230    0.038371   -0.283423

siesta: Pressure (static):        472.30072933  kBar

siesta: Stress tensor (total) (eV/Ang**3):
        -0.301454    0.064709    0.115781
         0.064709   -0.299689    0.038435
         0.115781    0.038435   -0.284387

siesta: Pressure (total):        472.92972595  kBar
 Anneal: Kinetic Energy=   1.29845874824073039E-003
 Anneal: Velocity scale factor =    1.0656418997662049     
 Anneal: Cell scale factor =    1.0022341104122368     

siesta: Temp_ion =     155.213 K

* Maximum dynamic memory allocated =     4 MB

siesta:                 ==============================
                            Begin MD step =     20
                        ==============================

superc: Internal auxiliary supercell:     5 x     5 x     5  =     125
superc: Number of atoms, orbitals, and projectors:    250   1000   2250

outcell: Unit cell vectors (Ang):
        2.517016    2.516014    0.000000
        0.000000    2.514043    2.560814
        2.423882    0.000000    2.507460

outcell: Cell vector modules (Ang)   :    3.558889    3.588618    3.487486
outcell: Cell angles (23,13,12) (deg):     59.1318     60.5573     60.3123
outcell: Cell volume (Ang**3)        :     31.4841
New_DM. Step:    20
Initializing Density Matrix...

InitMesh: MESH =    18 x    18 x    18 =        5832
InitMesh: Mesh cutoff (required, used) =   100.000   104.249 Ry

siesta: Eharris(eV) =    -211.587277


siesta: Eharris(eV) =    -211.587277


siesta: Atomic forces (eV/Ang):
----------------------------------------
   Tot   -0.005552    0.006136   -0.001276
----------------------------------------
   Max    1.007028
   Res    0.792157    sqrt( Sum f_i^2 / 3N )
----------------------------------------
   Max    1.007028    constrained

Stress-tensor-Voigt (kbar):     -489.01     -486.16     -456.63       98.58       60.39      181.16
(Free)E + p*V (eV/cell)     -202.1849
Target enthalpy (eV/cell)     -203.7032

siesta: Stress tensor (static) (eV/Ang**3):
        -0.305083    0.061555    0.113445
         0.061555   -0.303430    0.037772
         0.113445    0.037772   -0.283870

siesta: Pressure (static):        476.59035122  kBar

siesta: Stress tensor (total) (eV/Ang**3):
        -0.305210    0.061529    0.113067
         0.061529   -0.303436    0.037694
         0.113067    0.037694   -0.285000

siesta: Pressure (total):        477.26463446  kBar
 Anneal: Kinetic Energy=   1.42692314365824966E-003
 Anneal: Velocity scale factor =    1.0581985803640763     
 Anneal: Cell scale factor =    1.0022717261222847     

siesta: Temp_ion =     168.194 K

* Maximum dynamic memory allocated =     4 MB

siesta:                 ==============================
                            Begin MD step =     21
                        ==============================

superc: Internal auxiliary supercell:     5 x     5 x     5  =     125
superc: Number of atoms, orbitals, and projectors:    250   1000   2250

outcell: Unit cell vectors (Ang):
        2.525951    2.506077    0.000000
        0.000000    2.522699    2.554647
        2.406238    0.000000    2.513156

outcell: Cell vector modules (Ang)   :    3.558208    3.590297    3.479358
outcell: Cell angles (23,13,12) (deg):     59.0727     60.5973     60.3383
outcell: Cell volume (Ang**3)        :     31.4194
New_DM. Step:    21
Initializing Density Matrix...

InitMesh: MESH =    18 x    18 x    18 =        5832
InitMesh: Mesh cutoff (required, used) =   100.000   104.160 Ry

siesta: Eharris(eV) =    -211.563567


siesta: Eharris(eV) =    -211.563567


siesta: Atomic forces (eV/Ang):
----------------------------------------
   Tot    0.011783    0.010584    0.006103
----------------------------------------
   Max    0.975557
   Res    0.766903    sqrt( Sum f_i^2 / 3N )
----------------------------------------
   Max    0.975557    constrained

Stress-tensor-Voigt (kbar):     -494.93     -492.95     -457.03       93.64       61.09      175.84
(Free)E + p*V (eV/cell)     -202.0953
Target enthalpy (eV/cell)     -203.6961

siesta: Stress tensor (static) (eV/Ang**3):
        -0.308850    0.058499    0.110016
         0.058499   -0.307622    0.038372
         0.110016    0.038372   -0.283981

siesta: Pressure (static):        480.90006939  kBar

siesta: Stress tensor (total) (eV/Ang**3):
        -0.308907    0.058448    0.109748
         0.058448   -0.307669    0.038128
         0.109748    0.038128   -0.285250

siesta: Pressure (total):        481.63319122  kBar
 Anneal: Kinetic Energy=   1.57284751664289236E-003
 Anneal: Velocity scale factor =    1.0511707297583215     
 Anneal: Cell scale factor =    1.0022846003891708     

siesta: Temp_ion =     182.941 K

* Maximum dynamic memory allocated =     4 MB

siesta:                 ==============================
                            Begin MD step =     22
                        ==============================

superc: Internal auxiliary supercell:     5 x     5 x     5  =     125
superc: Number of atoms, orbitals, and projectors:    250   1000   2250

outcell: Unit cell vectors (Ang):
        2.535517    2.496670    0.000000
        0.000000    2.532074    2.548425
        2.389232    0.000000    2.518897

outcell: Cell vector modules (Ang)   :    3.558399    3.592474    3.471783
outcell: Cell angles (23,13,12) (deg):     59.0240     60.6356     60.3615
outcell: Cell volume (Ang**3)        :     31.3733
New_DM. Step:    22
Initializing Density Matrix...

InitMesh: MESH =    18 x    18 x    18 =        5832
InitMesh: Mesh cutoff (required, used) =   100.000   104.032 Ry

siesta: Eharris(eV) =    -211.549874


siesta: Eharris(eV) =    -211.549874


siesta: Atomic forces (eV/Ang):
----------------------------------------
   Tot   -0.004034    0.013484   -0.007235
----------------------------------------
   Max    0.924817
   Res    0.745471    sqrt( Sum f_i^2 / 3N )
----------------------------------------
   Max    0.924817    constrained

Stress-tensor-Voigt (kbar):     -500.19     -498.53     -456.69       88.22       61.44      168.45
(Free)E + p*V (eV/cell)     -202.0273
Target enthalpy (eV/cell)     -203.6945

siesta: Stress tensor (static) (eV/Ang**3):
        -0.312178    0.055098    0.105262
         0.055098   -0.311026    0.038765
         0.105262    0.038765   -0.283687

siesta: Pressure (static):        484.33837876  kBar

siesta: Stress tensor (total) (eV/Ang**3):
        -0.312190    0.055059    0.105136
         0.055059   -0.311155    0.038348
         0.105136    0.038348   -0.285043

siesta: Pressure (total):        485.13776545  kBar
 Anneal: Kinetic Energy=   1.72090651674119987E-003
 Anneal: Velocity scale factor =    1.0452216079768266     
 Anneal: Cell scale factor =    1.0022673772692281     

siesta: Temp_ion =     197.902 K

* Maximum dynamic memory allocated =     4 MB

siesta:                 ==============================
                            Begin MD step =     23
                        ==============================

superc: Internal auxiliary supercell:     5 x     5 x     5  =     125
superc: Number of atoms, orbitals, and projectors:    250   1000   2250

outcell: Unit cell vectors (Ang):
        2.545656    2.487836    0.000000
        0.000000    2.542051    2.542180
        2.373055    0.000000    2.524609

outcell: Cell vector modules (Ang)   :    3.559451    3.595095    3.464829
outcell: Cell angles (23,13,12) (deg):     58.9866     60.6708     60.3822
outcell: Cell volume (Ang**3)        :     31.3457
New_DM. Step:    23
Initializing Density Matrix...

InitMesh: MESH =    18 x    18 x    18 =        5832
InitMesh: Mesh cutoff (required, used) =   100.000   103.869 Ry

siesta: Eharris(eV) =    -211.545896


siesta: Eharris(eV) =    -211.545896


siesta: Atomic forces (eV/Ang):
----------------------------------------
   Tot   -0.007816    0.036143   -0.018676
----------------------------------------
   Max    0.859595
   Res    0.726512    sqrt( Sum f_i^2 / 3N )
----------------------------------------
   Max    0.859595    constrained

Stress-tensor-Voigt (kbar):     -503.26     -500.80     -454.71       83.51       63.16      159.41
(Free)E + p*V (eV/cell)     -202.0104
Target enthalpy (eV/cell)     -203.6979

siesta: Stress tensor (static) (eV/Ang**3):
        -0.314104    0.052108    0.099461
         0.052108   -0.312328    0.039997
         0.099461    0.039997   -0.282423

siesta: Pressure (static):        485.38733497  kBar

siesta: Stress tensor (total) (eV/Ang**3):
        -0.314106    0.052124    0.099497
         0.052124   -0.312570    0.039420
         0.099497    0.039420   -0.283802

siesta: Pressure (total):        486.25355089  kBar
 Anneal: Kinetic Energy=   1.85865471100546864E-003
 Anneal: Velocity scale factor =    1.0405139469410434     
 Anneal: Cell scale factor =    1.0021837587880504     

siesta: Temp_ion =     211.822 K

* Maximum dynamic memory allocated =     4 MB

siesta:                 ==============================
                            Begin MD step =     24
                        ==============================

superc: Internal auxiliary supercell:     5 x     5 x     5  =     125
superc: Number of atoms, orbitals, and projectors:    250   1000   2250

outcell: Unit cell vectors (Ang):
        2.556153    2.479498    0.000000
        0.000000    2.552301    2.535771
        2.357850    0.000000    2.530122

outcell: Cell vector modules (Ang)   :    3.561155    3.597829    3.458464
outcell: Cell angles (23,13,12) (deg):     58.9613     60.7014     60.4009
outcell: Cell volume (Ang**3)        :     31.3315
New_DM. Step:    24
Initializing Density Matrix...

InitMesh: MESH =    18 x    18 x    18 =        5832
InitMesh: Mesh cutoff (required, used) =   100.000   103.683 Ry

siesta: Eharris(eV) =    -211.548880


siesta: Eharris(eV) =    -211.548880


siesta: Atomic forces (eV/Ang):
----------------------------------------
   Tot   -0.021928    0.047014   -0.014684
----------------------------------------
   Max    0.944366
   Res    0.717056    sqrt( Sum f_i^2 / 3N )
----------------------------------------
   Max    0.944366    constrained

Stress-tensor-Voigt (kbar):     -507.10     -504.17     -451.56       78.42       65.74      149.42
(Free)E + p*V (eV/cell)     -201.9917
Target enthalpy (eV/cell)     -203.7049

siesta: Stress tensor (static) (eV/Ang**3):
        -0.316472    0.048837    0.093061
         0.048837   -0.314297    0.041736
         0.093061    0.041736   -0.280506

siesta: Pressure (static):        486.67933520  kBar

siesta: Stress tensor (total) (eV/Ang**3):
        -0.316502    0.048943    0.093258
         0.048943   -0.314672    0.041030
         0.093258    0.041030   -0.281838

siesta: Pressure (total):        487.60730753  kBar
 Anneal: Kinetic Energy=   1.97287069148182085E-003
 Anneal: Velocity scale factor =    1.0370957263444787     
 Anneal: Cell scale factor =    1.0020542468016780     

siesta: Temp_ion =     223.364 K

* Maximum dynamic memory allocated =     4 MB

siesta:                 ==============================
                            Begin MD step =     25
                        ==============================

superc: Internal auxiliary supercell:     5 x     5 x     5  =     125
superc: Number of atoms, orbitals, and projectors:    250   1000   2250

outcell: Unit cell vectors (Ang):
        2.567091    2.471690    0.000000
        0.000000    2.562935    2.529108
        2.343693    0.000000    2.535319

outcell: Cell vector modules (Ang)   :    3.563595    3.600698    3.452643
outcell: Cell angles (23,13,12) (deg):     58.9506     60.7256     60.4164
outcell: Cell volume (Ang**3)        :     31.3314
New_DM. Step:    25
Initializing Density Matrix...

InitMesh: MESH =    18 x    18 x    18 =        5832
InitMesh: Mesh cutoff (required, used) =   100.000   103.477 Ry

siesta: Eharris(eV) =    -211.558957


siesta: Eharris(eV) =    -211.558957


siesta: Atomic forces (eV/Ang):
----------------------------------------
   Tot   -0.016946    0.048519    0.001274
----------------------------------------
   Max    1.052823
   Res    0.731571    sqrt( Sum f_i^2 / 3N )
----------------------------------------
   Max    1.052823    constrained

Stress-tensor-Voigt (kbar):     -509.63     -503.87     -446.48       71.75       69.54      138.63
(Free)E + p*V (eV/cell)     -202.0207
Target enthalpy (eV/cell)     -203.7154

siesta: Stress tensor (static) (eV/Ang**3):
        -0.317986    0.044561    0.086183
         0.044561   -0.313974    0.044195
         0.086183    0.044195   -0.277446

siesta: Pressure (static):        485.68137502  kBar

siesta: Stress tensor (total) (eV/Ang**3):
        -0.318083    0.044783    0.086526
         0.044783   -0.314485    0.043405
         0.086526    0.043405   -0.278670

siesta: Pressure (total):        486.66019509  kBar
 Anneal: Kinetic Energy=   2.05229849355702786E-003
 Anneal: Velocity scale factor =    1.0349371308285753     
 Anneal: Cell scale factor =    1.0018482792027426     

siesta: Temp_ion =     231.390 K

* Maximum dynamic memory allocated =     4 MB

siesta:                 ==============================
                            Begin MD step =     26
                        ==============================

superc: Internal auxiliary supercell:     5 x     5 x     5  =     125
superc: Number of atoms, orbitals, and projectors:    250   1000   2250

outcell: Unit cell vectors (Ang):
        2.578341    2.464565    0.000000
        0.000000    2.573581    2.522069
        2.330643    0.000000    2.540005

outcell: Cell vector modules (Ang)   :    3.566780    3.603352    3.447249
outcell: Cell angles (23,13,12) (deg):     58.9545     60.7430     60.4285
outcell: Cell volume (Ang**3)        :     31.3412
New_DM. Step:    26
Initializing Density Matrix...

InitMesh: MESH =    18 x    18 x    18 =        5832
InitMesh: Mesh cutoff (required, used) =   100.000   103.250 Ry

siesta: Eharris(eV) =    -211.573859


siesta: Eharris(eV) =    -211.573859


siesta: Atomic forces (eV/Ang):
----------------------------------------
   Tot   -0.025406    0.041503   -0.013194
----------------------------------------
   Max    1.146487
   Res    0.749637    sqrt( Sum f_i^2 / 3N )
----------------------------------------
   Max    1.146487    constrained

Stress-tensor-Voigt (kbar):     -510.17     -503.00     -442.36       67.25       73.00      127.68
(Free)E + p*V (eV/cell)     -202.0621
Target enthalpy (eV/cell)     -203.7283

siesta: Stress tensor (static) (eV/Ang**3):
        -0.318221    0.041619    0.079233
         0.041619   -0.313308    0.046384
         0.079233    0.046384   -0.275031

siesta: Pressure (static):        484.16177152  kBar

siesta: Stress tensor (total) (eV/Ang**3):
        -0.318421    0.041975    0.079691
         0.041975   -0.313944    0.045563
         0.079691    0.045563   -0.276094

siesta: Pressure (total):        485.17547560  kBar
 Anneal: Kinetic Energy=   2.09754628359604513E-003
 Anneal: Velocity scale factor =    1.0337786763531629     
 Anneal: Cell scale factor =    1.0016811447907392     

siesta: Temp_ion =     235.963 K

* Maximum dynamic memory allocated =     4 MB

siesta:                 ==============================
                            Begin MD step =     27
                        ==============================

superc: Internal auxiliary supercell:     5 x     5 x     5  =     125
superc: Number of atoms, orbitals, and projectors:    250   1000   2250

outcell: Unit cell vectors (Ang):
        2.589701    2.457904    0.000000
        0.000000    2.584177    2.514690
        2.318697    0.000000    2.544275

outcell: Cell vector modules (Ang)   :    3.570412    3.605778    3.442338
outcell: Cell angles (23,13,12) (deg):     58.9717     60.7537     60.4379
outcell: Cell volume (Ang**3)        :     31.3585
New_DM. Step:    27
Initializing Density Matrix...

InitMesh: MESH =    18 x    18 x    18 =        5832
InitMesh: Mesh cutoff (required, used) =   100.000   103.019 Ry

siesta: Eharris(eV) =    -211.592254


siesta: Eharris(eV) =    -211.592254


siesta: Atomic forces (eV/Ang):
----------------------------------------
   Tot   -0.021061    0.044289   -0.015220
----------------------------------------
   Max    1.211385
   Res    0.772402    sqrt( Sum f_i^2 / 3N )
----------------------------------------
   Max    1.211385    constrained

Stress-tensor-Voigt (kbar):     -511.63     -503.17     -439.76       64.26       76.71      113.97
(Free)E + p*V (eV/cell)     -202.0820
Target enthalpy (eV/cell)     -203.7427

siesta: Stress tensor (static) (eV/Ang**3):
        -0.318995    0.039613    0.070598
         0.039613   -0.313317    0.048674
         0.070598    0.048674   -0.273604

siesta: Pressure (static):        483.81765731  kBar

siesta: Stress tensor (total) (eV/Ang**3):
        -0.319328    0.040107    0.071133
         0.040107   -0.314051    0.047878
         0.071133    0.047878   -0.274471

siesta: Pressure (total):        484.85084330  kBar
 Anneal: Kinetic Energy=   2.11605974864339770E-003
 Anneal: Velocity scale factor =    1.0333186085658790     
 Anneal: Cell scale factor =    1.0015764049171283     

siesta: Temp_ion =     237.834 K

* Maximum dynamic memory allocated =     4 MB

siesta:                 ==============================
                            Begin MD step =     28
                        ==============================

superc: Internal auxiliary supercell:     5 x     5 x     5  =     125
superc: Number of atoms, orbitals, and projectors:    250   1000   2250

outcell: Unit cell vectors (Ang):
        2.601265    2.451557    0.000000
        0.000000    2.594830    2.506951
        2.308096    0.000000    2.548286

outcell: Cell vector modules (Ang)   :    3.574452    3.608039    3.438178
outcell: Cell angles (23,13,12) (deg):     59.0036     60.7553     60.4454
outcell: Cell volume (Ang**3)        :     31.3859
New_DM. Step:    28
Initializing Density Matrix...

InitMesh: MESH =    18 x    18 x    18 =        5832
InitMesh: Mesh cutoff (required, used) =   100.000   102.787 Ry

siesta: Eharris(eV) =    -211.615300


siesta: Eharris(eV) =    -211.615300


siesta: Atomic forces (eV/Ang):
----------------------------------------
   Tot   -0.015102    0.037642   -0.011683
----------------------------------------
   Max    1.266131
   Res    0.805409    sqrt( Sum f_i^2 / 3N )
----------------------------------------
   Max    1.266131    constrained

Stress-tensor-Voigt (kbar):     -511.30     -500.70     -436.56       60.35       80.84      103.60
(Free)E + p*V (eV/cell)     -202.1362
Target enthalpy (eV/cell)     -203.7592

siesta: Stress tensor (static) (eV/Ang**3):
        -0.318634    0.037042    0.064094
         0.037042   -0.311711    0.051177
         0.064094    0.051177   -0.271816

siesta: Pressure (static):        481.81253038  kBar

siesta: Stress tensor (total) (eV/Ang**3):
        -0.319126    0.037669    0.064661
         0.037669   -0.312509    0.050455
         0.064661    0.050455   -0.272474

siesta: Pressure (total):        482.85311249  kBar
 Anneal: Kinetic Energy=   2.11684194193445009E-003
 Anneal: Velocity scale factor =    1.0332993434315287     
 Anneal: Cell scale factor =    1.0014487456951975     

siesta: Temp_ion =     237.913 K

* Maximum dynamic memory allocated =     4 MB

siesta:                 ==============================
                            Begin MD step =     29
                        ==============================

superc: Internal auxiliary supercell:     5 x     5 x     5  =     125
superc: Number of atoms, orbitals, and projectors:    250   1000   2250

outcell: Unit cell vectors (Ang):
        2.612851    2.445613    0.000000
        0.000000    2.605264    2.498814
        2.298513    0.000000    2.551978

outcell: Cell vector modules (Ang)   :    3.578828    3.609913    3.434495
outcell: Cell angles (23,13,12) (deg):     59.0466     60.7511     60.4505
outcell: Cell volume (Ang**3)        :     31.4183
New_DM. Step:    29
Initializing Density Matrix...

InitMesh: MESH =    18 x    18 x    18 =        5832
InitMesh: Mesh cutoff (required, used) =   100.000   102.555 Ry

siesta: Eharris(eV) =    -211.640639


siesta: Eharris(eV) =    -211.640639


siesta: Atomic forces (eV/Ang):
----------------------------------------
   Tot   -0.026536    0.032934   -0.010170
----------------------------------------
   Max    1.297223
   Res    0.836466    sqrt( Sum f_i^2 / 3N )
----------------------------------------
   Max    1.297223    constrained

Stress-tensor-Voigt (kbar):     -510.98     -498.23     -434.02       58.70       86.21       93.14
(Free)E + p*V (eV/cell)     -202.1868
Target enthalpy (eV/cell)     -203.7767

siesta: Stress tensor (static) (eV/Ang**3):
        -0.318251    0.035895    0.057583
         0.035895   -0.310145    0.054412
         0.057583    0.054412   -0.270437

siesta: Pressure (static):        480.03515301  kBar

siesta: Stress tensor (total) (eV/Ang**3):
        -0.318922    0.036638    0.058131
         0.036638   -0.310968    0.053804
         0.058131    0.053804   -0.270890

siesta: Pressure (total):        481.07499001  kBar
 Anneal: Kinetic Energy=   2.11082804356029548E-003
 Anneal: Velocity scale factor =    1.0334478213799787     
 Anneal: Cell scale factor =    1.0013485704630418     

siesta: Temp_ion =     237.305 K

* Maximum dynamic memory allocated =     4 MB

siesta:                 ==============================
                            Begin MD step =     30
                        ==============================

superc: Internal auxiliary supercell:     5 x     5 x     5  =     125
superc: Number of atoms, orbitals, and projectors:    250   1000   2250

outcell: Unit cell vectors (Ang):
        2.624457    2.439849    0.000000
        0.000000    2.615478    2.490160
        2.289943    0.000000    2.555420

outcell: Cell vector modules (Ang)   :    3.583384    3.611318    3.431327
outcell: Cell angles (23,13,12) (deg):     59.1011     60.7399     60.4540
outcell: Cell volume (Ang**3)        :     31.4537
New_DM. Step:    30
Initializing Density Matrix...

InitMesh: MESH =    18 x    18 x    18 =        5832
InitMesh: Mesh cutoff (required, used) =   100.000   102.331 Ry

siesta: Eharris(eV) =    -211.667572


siesta: Eharris(eV) =    -211.667572


siesta: Atomic forces (eV/Ang):
----------------------------------------
   Tot   -0.016186    0.031584    0.006698
----------------------------------------
   Max    1.305816
   Res    0.866413    sqrt( Sum f_i^2 / 3N )
----------------------------------------
   Max    1.305816    constrained

Stress-tensor-Voigt (kbar):     -510.88     -496.17     -432.82       57.45       92.51       82.20
(Free)E + p*V (eV/cell)     -202.2253
Target enthalpy (eV/cell)     -203.7949

siesta: Stress tensor (static) (eV/Ang**3):
        -0.317996    0.035021    0.050827
         0.035021   -0.308875    0.058202
         0.050827    0.058202   -0.269871

siesta: Pressure (static):        478.91831931  kBar

siesta: Stress tensor (total) (eV/Ang**3):
        -0.318860    0.035855    0.051307
         0.035855   -0.309681    0.057739
         0.051307    0.057739   -0.270142

siesta: Pressure (total):        479.95436400  kBar
 Anneal: Kinetic Energy=   2.10990830163240457E-003
 Anneal: Velocity scale factor =    1.0334706017473412     
 Anneal: Cell scale factor =    1.0013029117875327     

siesta: Temp_ion =     237.212 K

* Maximum dynamic memory allocated =     4 MB

siesta:                 ==============================
                            Begin MD step =     31
                        ==============================

superc: Internal auxiliary supercell:     5 x     5 x     5  =     125
superc: Number of atoms, orbitals, and projectors:    250   1000   2250

outcell: Unit cell vectors (Ang):
        2.636106    2.434226    0.000000
        0.000000    2.625509    2.480903
        2.282417    0.000000    2.558749

outcell: Cell vector modules (Ang)   :    3.588107    3.612227    3.428793
outcell: Cell angles (23,13,12) (deg):     59.1673     60.7220     60.4555
outcell: Cell volume (Ang**3)        :     31.4931
New_DM. Step:    31
Initializing Density Matrix...

InitMesh: MESH =    18 x    18 x    18 =        5832
InitMesh: Mesh cutoff (required, used) =   100.000   102.117 Ry

siesta: Eharris(eV) =    -211.696579


siesta: Eharris(eV) =    -211.696579


siesta: Atomic forces (eV/Ang):
----------------------------------------
   Tot   -0.019741    0.022301    0.009961
----------------------------------------
   Max    1.297834
   Res    0.892570    sqrt( Sum f_i^2 / 3N )
----------------------------------------
   Max    1.297834    constrained

Stress-tensor-Voigt (kbar):     -506.98     -491.94     -430.63       55.42       98.33       72.82
(Free)E + p*V (eV/cell)     -202.3102
Target enthalpy (eV/cell)     -203.8142

siesta: Stress tensor (static) (eV/Ang**3):
        -0.315363    0.033696    0.045091
         0.033696   -0.306291    0.061674
         0.045091    0.061674   -0.268651

siesta: Pressure (static):        475.48096018  kBar

siesta: Stress tensor (total) (eV/Ang**3):
        -0.316426    0.034588    0.045451
         0.034588   -0.307040    0.061373
         0.045451    0.061373   -0.268776

siesta: Pressure (total):        476.51544633  kBar
 Anneal: Kinetic Energy=   2.12644138065752391E-003
 Anneal: Velocity scale factor =    1.0330640380781564     
 Anneal: Cell scale factor =    1.0012186717018821     

siesta: Temp_ion =     238.883 K

* Maximum dynamic memory allocated =     4 MB

siesta:                 ==============================
                            Begin MD step =     32
                        ==============================

superc: Internal auxiliary supercell:     5 x     5 x     5  =     125
superc: Number of atoms, orbitals, and projectors:    250   1000   2250

outcell: Unit cell vectors (Ang):
        2.647398    2.428821    0.000000
        0.000000    2.635131    2.471101
        2.275782    0.000000    2.561867

outcell: Cell vector modules (Ang)   :    3.592755    3.612514    3.426711
outcell: Cell angles (23,13,12) (deg):     59.2429     60.7003     60.4535
outcell: Cell volume (Ang**3)        :     31.5311
New_DM. Step:    32
Initializing Density Matrix...

InitMesh: MESH =    18 x    18 x    18 =        5832
InitMesh: Mesh cutoff (required, used) =   100.000   101.924 Ry

siesta: Eharris(eV) =    -211.725165


siesta: Eharris(eV) =    -211.725165


siesta: Atomic forces (eV/Ang):
----------------------------------------
   Tot   -0.019316    0.014709    0.001435
----------------------------------------
   Max    1.267800
   Res    0.917782    sqrt( Sum f_i^2 / 3N )
----------------------------------------
   Max    1.267800    constrained

Stress-tensor-Voigt (kbar):     -503.58     -486.42     -431.04       54.48      105.67       63.86
(Free)E + p*V (eV/cell)     -202.3832
Target enthalpy (eV/cell)     -203.8333

siesta: Stress tensor (static) (eV/Ang**3):
        -0.313046    0.033094    0.039665
         0.033094   -0.302940    0.066093
         0.039665    0.066093   -0.269001

siesta: Pressure (static):        472.64025378  kBar

siesta: Stress tensor (total) (eV/Ang**3):
        -0.314307    0.034003    0.039857
         0.034003   -0.303596    0.065956
         0.039857    0.065956   -0.269033

siesta: Pressure (total):        473.68083390  kBar
 Anneal: Kinetic Energy=   2.16664539871169650E-003
 Anneal: Velocity scale factor =    1.0321006350012143     
 Anneal: Cell scale factor =    1.0012390232698587     

siesta: Temp_ion =     242.945 K

* Maximum dynamic memory allocated =     4 MB

siesta:                 ==============================
                            Begin MD step =     33
                        ==============================

superc: Internal auxiliary supercell:     5 x     5 x     5  =     125
superc: Number of atoms, orbitals, and projectors:    250   1000   2250

outcell: Unit cell vectors (Ang):
        2.658377    2.423527    0.000000
        0.000000    2.644204    2.460610
        2.269992    0.000000    2.565042

outcell: Cell vector modules (Ang)   :    3.597284    3.611982    3.425245
outcell: Cell angles (23,13,12) (deg):     59.3260     60.6758     60.4489
outcell: Cell volume (Ang**3)        :     31.5672
New_DM. Step:    33
Initializing Density Matrix...

InitMesh: MESH =    18 x    18 x    18 =        5832
InitMesh: Mesh cutoff (required, used) =   100.000   101.749 Ry

siesta: Eharris(eV) =    -211.753262


siesta: Eharris(eV) =    -211.753262


siesta: Atomic forces (eV/Ang):
----------------------------------------
   Tot   -0.021211   -0.007042   -0.002277
----------------------------------------
   Max    1.223582
   Res    0.934889    sqrt( Sum f_i^2 / 3N )
----------------------------------------
   Max    1.223582    constrained

Stress-tensor-Voigt (kbar):     -498.67     -481.94     -430.96       55.74      112.95       55.80
(Free)E + p*V (eV/cell)     -202.4628
Target enthalpy (eV/cell)     -203.8523

siesta: Stress tensor (static) (eV/Ang**3):
        -0.309796    0.033915    0.034845
         0.033915   -0.300265    0.070484
         0.034845    0.070484   -0.268982

siesta: Pressure (static):        469.46576224  kBar

siesta: Stress tensor (total) (eV/Ang**3):
        -0.311239    0.034792    0.034826
         0.034792   -0.300799    0.070498
         0.034826    0.070498   -0.268984

siesta: Pressure (total):        470.52292889  kBar
 Anneal: Kinetic Energy=   2.23724237156675736E-003
 Anneal: Velocity scale factor =    1.0304907067367228     
 Anneal: Cell scale factor =    1.0012404713387419     

siesta: Temp_ion =     250.079 K

* Maximum dynamic memory allocated =     4 MB

siesta:                 ==============================
[...]
(Free)E + p*V (eV/cell)     -204.5257
Target enthalpy (eV/cell)     -204.5517

siesta: Stress tensor (static) (eV/Ang**3):
        -0.256919    0.009375    0.015736
         0.009375   -0.233506    0.038635
         0.015736    0.038635   -0.256179

siesta: Pressure (static):        398.73480929  kBar

siesta: Stress tensor (total) (eV/Ang**3):
        -0.258401    0.008955    0.013943
         0.008955   -0.234670    0.038117
         0.013943    0.038117   -0.258350

siesta: Pressure (total):        401.30758585  kBar
 Anneal: Kinetic Energy=   5.80866777333808714E-003
 Anneal: Velocity scale factor =   0.99962575748469418     
 Anneal: Cell scale factor =    1.0005719004061029     

siesta: Temp_ion =     610.982 K

* Maximum dynamic memory allocated =     4 MB

siesta:                 ==============================
                            Begin MD step =     95
                        ==============================

superc: Internal auxiliary supercell:     5 x     5 x     5  =     125
superc: Number of atoms, orbitals, and projectors:    250   1000   2250

outcell: Unit cell vectors (Ang):
        2.956801    2.061464    0.000000
        0.000000    2.858240    2.087990
        2.031410    0.000000    2.727808

outcell: Cell vector modules (Ang)   :    3.604484    3.539667    3.401112
outcell: Cell angles (23,13,12) (deg):     61.7639     60.6624     62.4956
outcell: Cell volume (Ang**3)        :     31.7972
New_DM. Step:    95
Initializing Density Matrix...

InitMesh: MESH =    20 x    18 x    18 =        6480
InitMesh: Mesh cutoff (required, used) =   100.000   101.153 Ry

siesta: Eharris(eV) =    -212.511802


siesta: Eharris(eV) =    -212.511802


siesta: Atomic forces (eV/Ang):
----------------------------------------
   Tot    0.006269   -0.009833   -0.001234
----------------------------------------
   Max    0.701798
   Res    0.469523    sqrt( Sum f_i^2 / 3N )
----------------------------------------
   Max    0.701798    constrained

Stress-tensor-Voigt (kbar):     -412.33     -375.98     -414.92       22.70       63.77       27.57
(Free)E + p*V (eV/cell)     -204.5301
Target enthalpy (eV/cell)     -204.5515

siesta: Stress tensor (static) (eV/Ang**3):
        -0.256058    0.014565    0.018963
         0.014565   -0.233427    0.040451
         0.018963    0.040451   -0.256581

siesta: Pressure (static):        398.44765364  kBar

siesta: Stress tensor (total) (eV/Ang**3):
        -0.257355    0.014169    0.017206
         0.014169   -0.234667    0.039800
         0.017206    0.039800   -0.258972

siesta: Pressure (total):        401.07951658  kBar
 Anneal: Kinetic Energy=   5.86016267273734275E-003
 Anneal: Velocity scale factor =   0.99945322035720519     
 Anneal: Cell scale factor =    1.0006091158647352     

siesta: Temp_ion =     616.185 K

* Maximum dynamic memory allocated =     4 MB

siesta:                 ==============================
                            Begin MD step =     96
                        ==============================

superc: Internal auxiliary supercell:     5 x     5 x     5  =     125
superc: Number of atoms, orbitals, and projectors:    250   1000   2250

outcell: Unit cell vectors (Ang):
        2.958226    2.059584    0.000000
        0.000000    2.855505    2.082672
        2.029159    0.000000    2.729469

outcell: Cell vector modules (Ang)   :    3.604579    3.534322    3.401101
outcell: Cell angles (23,13,12) (deg):     61.7770     60.6833     62.5071
outcell: Cell volume (Ang**3)        :     31.7604
New_DM. Step:    96
Initializing Density Matrix...

InitMesh: MESH =    20 x    18 x    18 =        6480
InitMesh: Mesh cutoff (required, used) =   100.000   101.434 Ry

siesta: Eharris(eV) =    -212.500736


siesta: Eharris(eV) =    -212.500736


siesta: Atomic forces (eV/Ang):
----------------------------------------
   Tot    0.009184   -0.000168    0.013190
----------------------------------------
   Max    0.741618
   Res    0.449097    sqrt( Sum f_i^2 / 3N )
----------------------------------------
   Max    0.741618    constrained

Stress-tensor-Voigt (kbar):     -411.51     -378.31     -417.65       32.54       67.56       31.77
(Free)E + p*V (eV/cell)     -204.5001
Target enthalpy (eV/cell)     -204.5495

siesta: Stress tensor (static) (eV/Ang**3):
        -0.255729    0.020652    0.021501
         0.020652   -0.234828    0.042916
         0.021501    0.042916   -0.258107

siesta: Pressure (static):        399.83493819  kBar

siesta: Stress tensor (total) (eV/Ang**3):
        -0.256842    0.020311    0.019826
         0.020311   -0.236121    0.042165
         0.019826    0.042165   -0.260676

siesta: Pressure (total):        402.49161735  kBar
 Anneal: Kinetic Energy=   5.83038036723794190E-003
 Anneal: Velocity scale factor =   0.99955263999979582     
 Anneal: Cell scale factor =    1.0007150526902571     

siesta: Temp_ion =     613.176 K

* Maximum dynamic memory allocated =     4 MB

siesta:                 ==============================
                            Begin MD step =     97
                        ==============================

superc: Internal auxiliary supercell:     5 x     5 x     5  =     125
superc: Number of atoms, orbitals, and projectors:    250   1000   2250

outcell: Unit cell vectors (Ang):
        2.959556    2.056891    0.000000
        0.000000    2.853034    2.077046
        2.026565    0.000000    2.731421

outcell: Cell vector modules (Ang)   :    3.604133    3.529012    3.401122
outcell: Cell angles (23,13,12) (deg):     61.7921     60.7062     62.5234
outcell: Cell volume (Ang**3)        :     31.7213
New_DM. Step:    97
Initializing Density Matrix...

InitMesh: MESH =    20 x    18 x    18 =        6480
InitMesh: Mesh cutoff (required, used) =   100.000   101.705 Ry

siesta: Eharris(eV) =    -212.487892


siesta: Eharris(eV) =    -212.487892


siesta: Atomic forces (eV/Ang):
----------------------------------------
   Tot    0.016796    0.006680    0.020716
----------------------------------------
   Max    0.762904
   Res    0.439509    sqrt( Sum f_i^2 / 3N )
----------------------------------------
   Max    0.762904    constrained

Stress-tensor-Voigt (kbar):     -411.63     -382.01     -419.82       41.67       69.16       36.79
(Free)E + p*V (eV/cell)     -204.4575
Target enthalpy (eV/cell)     -204.5463

siesta: Stress tensor (static) (eV/Ang**3):
        -0.255977    0.026274    0.024517
         0.026274   -0.237104    0.043979
         0.024517    0.043979   -0.259334

siesta: Pressure (static):        401.83869374  kBar

siesta: Stress tensor (total) (eV/Ang**3):
        -0.256915    0.026011    0.022962
         0.026011   -0.238427    0.043163
         0.022962    0.043163   -0.262030

siesta: Pressure (total):        404.48536015  kBar
 Anneal: Kinetic Energy=   5.72233434924040649E-003
 Anneal: Velocity scale factor =   0.99992192126539248     
 Anneal: Cell scale factor =    1.0007981680738542     

siesta: Temp_ion =     602.257 K

* Maximum dynamic memory allocated =     4 MB

siesta:                 ==============================
                            Begin MD step =     98
                        ==============================

superc: Internal auxiliary supercell:     5 x     5 x     5  =     125
superc: Number of atoms, orbitals, and projectors:    250   1000   2250

outcell: Unit cell vectors (Ang):
        2.960904    2.053447    0.000000
        0.000000    2.850982    2.071297
        2.023563    0.000000    2.733601

outcell: Cell vector modules (Ang)   :    3.603276    3.523971    3.401086
outcell: Cell angles (23,13,12) (deg):     61.8085     60.7313     62.5451
outcell: Cell volume (Ang**3)        :     31.6825
New_DM. Step:    98
Initializing Density Matrix...

InitMesh: MESH =    20 x    18 x    18 =        6480
InitMesh: Mesh cutoff (required, used) =   100.000   101.954 Ry

siesta: Eharris(eV) =    -212.474283


siesta: Eharris(eV) =    -212.474283


siesta: Atomic forces (eV/Ang):
----------------------------------------
   Tot    0.018139    0.001733    0.009738
----------------------------------------
   Max    0.764491
   Res    0.442876    sqrt( Sum f_i^2 / 3N )
----------------------------------------
   Max    0.764491    constrained

Stress-tensor-Voigt (kbar):     -411.67     -386.19     -421.51       51.04       70.61       41.27
(Free)E + p*V (eV/cell)     -204.4146
Target enthalpy (eV/cell)     -204.5423

siesta: Stress tensor (static) (eV/Ang**3):
        -0.256162    0.032024    0.027166
         0.032024   -0.239709    0.044912
         0.027166    0.044912   -0.260319

siesta: Pressure (static):        403.85409074  kBar

siesta: Stress tensor (total) (eV/Ang**3):
        -0.256942    0.031857    0.025758
         0.031857   -0.241036    0.044072
         0.025758    0.044072   -0.263085

siesta: Pressure (total):        406.45669816  kBar
 Anneal: Kinetic Energy=   5.54743585944416674E-003
 Anneal: Velocity scale factor =    1.0005498677307076     
 Anneal: Cell scale factor =    1.0008622609114886     

siesta: Temp_ion =     584.583 K

* Maximum dynamic memory allocated =     4 MB

siesta:                 ==============================
                            Begin MD step =     99
                        ==============================

superc: Internal auxiliary supercell:     5 x     5 x     5  =     125
superc: Number of atoms, orbitals, and projectors:    250   1000   2250

outcell: Unit cell vectors (Ang):
        2.962262    2.049237    0.000000
        0.000000    2.849405    2.065438
        2.020200    0.000000    2.735958

outcell: Cell vector modules (Ang)   :    3.601995    3.519253    3.400981
outcell: Cell angles (23,13,12) (deg):     61.8270     60.7575     62.5722
outcell: Cell volume (Ang**3)        :     31.6440
New_DM. Step:    99
Initializing Density Matrix...

InitMesh: MESH =    20 x    18 x    18 =        6480
InitMesh: Mesh cutoff (required, used) =   100.000   102.176 Ry

siesta: Eharris(eV) =    -212.460053


siesta: Eharris(eV) =    -212.460053


siesta: Atomic forces (eV/Ang):
----------------------------------------
   Tot    0.018528    0.017106    0.007583
----------------------------------------
   Max    0.757262
   Res    0.462119    sqrt( Sum f_i^2 / 3N )
----------------------------------------
   Max    0.757262    constrained

Stress-tensor-Voigt (kbar):     -411.16     -392.19     -424.36       60.36       70.91       44.68
(Free)E + p*V (eV/cell)     -204.3551
Target enthalpy (eV/cell)     -204.5376

siesta: Stress tensor (static) (eV/Ang**3):
        -0.255978    0.037732    0.029133
         0.037732   -0.243475    0.045083
         0.029133    0.045083   -0.262083

siesta: Pressure (static):        406.70914153  kBar

siesta: Stress tensor (total) (eV/Ang**3):
        -0.256624    0.037670    0.027889
         0.037670   -0.244784    0.044256
         0.027889    0.044256   -0.264864

siesta: Pressure (total):        409.23846820  kBar
 Anneal: Kinetic Energy=   5.31820379694281434E-003
 Anneal: Velocity scale factor =    1.0014347629903468     
 Anneal: Cell scale factor =    1.0009729316568341     

siesta: Temp_ion =     561.419 K

* Maximum dynamic memory allocated =     4 MB

siesta:                 ==============================
                            Begin MD step =    100
                        ==============================

superc: Internal auxiliary supercell:     5 x     5 x     5  =     125
superc: Number of atoms, orbitals, and projectors:    250   1000   2250

outcell: Unit cell vectors (Ang):
        2.963565    2.044269    0.000000
        0.000000    2.848509    2.059566
        2.016565    0.000000    2.738620

outcell: Cell vector modules (Ang)   :    3.600243    3.515084    3.400967
outcell: Cell angles (23,13,12) (deg):     61.8480     60.7854     62.6040
outcell: Cell volume (Ang**3)        :     31.6091
New_DM. Step:   100
Initializing Density Matrix...

InitMesh: MESH =    20 x    18 x    18 =        6480
InitMesh: Mesh cutoff (required, used) =   100.000   102.357 Ry

siesta: Eharris(eV) =    -212.446525


siesta: Eharris(eV) =    -212.446525


siesta: Atomic forces (eV/Ang):
----------------------------------------
   Tot    0.025041   -0.011803    0.024139
----------------------------------------
   Max    0.735975
   Res    0.489639    sqrt( Sum f_i^2 / 3N )
----------------------------------------
   Max    0.735975    constrained

Stress-tensor-Voigt (kbar):     -412.37     -397.80     -427.60       70.19       70.77       46.71
(Free)E + p*V (eV/cell)     -204.2843
Target enthalpy (eV/cell)     -204.5326

siesta: Stress tensor (static) (eV/Ang**3):
        -0.256838    0.043759    0.030231
         0.043759   -0.247013    0.044949
         0.030231    0.044949   -0.264139

siesta: Pressure (static):        410.15607075  kBar

siesta: Stress tensor (total) (eV/Ang**3):
        -0.257375    0.043806    0.029157
         0.043806   -0.248283    0.044173
         0.029157    0.044173   -0.266885

siesta: Pressure (total):        412.58827514  kBar
 Anneal: Kinetic Energy=   5.04322649584997788E-003
 Anneal: Velocity scale factor =    1.0026011761250979     
 Anneal: Cell scale factor =    1.0010992063601702     

siesta: Temp_ion =     533.632 K

* Maximum dynamic memory allocated =     4 MB

siesta: Program's energy decomposition (eV):
siesta: Ebs     =       -81.512205
siesta: Eions   =       380.802124
siesta: Ena     =       111.787921
siesta: Ekin    =        86.941441
siesta: Enl     =        32.642881
siesta: DEna    =         4.321406
siesta: DUscf   =         0.096091
siesta: DUext   =         0.000000
siesta: Exc     =       -67.411706
siesta: eta*DQ  =         0.000000
siesta: Emadel  =         0.000000
siesta: Emeta   =         0.000000
siesta: Emolmec =         0.000000
siesta: Ekinion =         0.068975
siesta: Eharris =      -212.377550
siesta: Etot    =      -212.355115
siesta: FreeEng =      -212.355115

siesta: Final energy (eV):
siesta:  Band Struct. =     -81.512205
siesta:       Kinetic =      86.941441
siesta:       Hartree =       8.956215
siesta:    Ext. field =       0.000000
siesta:   Exch.-corr. =     -67.411706
siesta:  Ion-electron =     -98.886727
siesta:       Ion-ion =    -142.023313
siesta:       Ekinion =       0.068975
siesta:         Total =    -212.355115

siesta: Atomic forces (eV/Ang):
siesta:      1    0.735975    0.305709    0.325780
siesta:      2   -0.710934   -0.317512   -0.301641
siesta: ----------------------------------------
siesta:    Tot    0.025041   -0.011803    0.024139

siesta: Stress tensor (static) (eV/Ang**3):
siesta:    -0.256838    0.043759    0.030231
siesta:     0.043759   -0.247013    0.044949
siesta:     0.030231    0.044949   -0.264139

siesta: Cell volume =         31.609078 Ang**3

siesta: Pressure (static):
siesta:                Solid            Molecule  Units
siesta:           0.00278813          0.00298649  Ry/Bohr**3
siesta:           0.25599652          0.27420957  eV/Ang**3
siesta:         410.15607075        439.33692132  kBar
(Free)E+ p_basis*V_orbitals  =        -211.847390
(Free)Eharris+ p_basis*V_orbitals  =        -205.268037

* Maximum dynamic memory allocated : Node    0 =     4 MB
* Maximum dynamic memory allocated : Node    1 =     4 MB
* Maximum dynamic memory allocated : Node    2 =     4 MB
* Maximum dynamic memory allocated : Node    3 =     4 MB

* Maximum memory occured during ranger                        

timer: CPU execution times:
timer:  Routine       Calls   Time/call    Tot.time        %
timer:  siesta            1     167.842     167.842   100.00
timer:  Setup             1       0.511       0.511     0.30
timer:  bands             1       0.000       0.000     0.00
timer:  writewave         1       0.003       0.003     0.00
timer:  KSV_init          1       0.000       0.000     0.00
timer:  IterMD          100       1.673     167.304    99.68
timer:  hsparse         100       0.003       0.322     0.19
timer:  overlap         100       0.002       0.203     0.12
timer:  IterSCF         100       0.916      91.565    54.55
timer:  kinefsm         200       0.002       0.345     0.21
timer:  nlefsm          200       0.456      91.247    54.36
timer:  DHSCF           200       0.297      59.445    35.42
timer:  DHSCF1          100       0.082       8.177     4.87
timer:  DHSCF2          100       0.259      25.858    15.41
timer:  REORD          1800       0.000       0.044     0.03
timer:  POISON          300       0.002       0.626     0.37
timer:  DHSCF3          200       0.053      10.685     6.37
timer:  rhoofd          200       0.026       5.213     3.11
timer:  cellXC          300       0.003       0.845     0.50
timer:  vmat            200       0.018       3.688     2.20
timer:  MolMec          200       0.000       0.002     0.00
timer:  diagon          100       0.035       3.499     2.08
timer:  c-eigval        400       0.004       1.583     0.94
timer:  c-buildHS       400       0.000       0.136     0.08
timer:  cdiag           800       0.004       3.062     1.82
timer:  cdiag1          800       0.000       0.250     0.15
timer:  cdiag2          800       0.001       0.428     0.25
timer:  cdiag3          800       0.002       1.964     1.17
timer:  cdiag4          800       0.000       0.132     0.08
timer:  c-eigvec        400       0.004       1.718     1.02
timer:  c-buildD        400       0.000       0.158     0.09
timer:  DHSCF4          100       0.147      14.707     8.76
timer:  dfscf           100       0.109      10.868     6.48
timer:  overfsm         100       0.002       0.168     0.10
timer:  optical           1       0.021       0.021     0.01
  

elaps: ELAPSED times:
elaps:  Routine       Calls   Time/call    Tot.time        %
elaps:  siesta            1      42.079      42.079   100.00
elaps:  Setup             1       0.133       0.133     0.32
elaps:  bands             1       0.000       0.000     0.00
elaps:  writewave         1       0.001       0.001     0.00
elaps:  KSV_init          1       0.000       0.000     0.00
elaps:  IterMD          100       0.419      41.939    99.66
elaps:  hsparse         100       0.001       0.066     0.16
elaps:  overlap         100       0.001       0.051     0.12
elaps:  IterSCF         100       0.229      22.922    54.47
elaps:  kinefsm         200       0.000       0.079     0.19
elaps:  nlefsm          200       0.112      22.318    53.04
elaps:  DHSCF           200       0.076      15.168    36.05
elaps:  DHSCF1          100       0.020       2.036     4.84
elaps:  DHSCF2          100       0.065       6.473    15.38
elaps:  REORD          1800       0.000       0.014     0.03
elaps:  POISON          300       0.001       0.154     0.37
elaps:  DHSCF3          200       0.013       2.669     6.34
elaps:  rhoofd          200       0.007       1.418     3.37
elaps:  cellXC          300       0.001       0.217     0.52
elaps:  vmat            200       0.005       0.919     2.18
elaps:  MolMec          200       0.000       0.001     0.00
elaps:  diagon          100       0.009       0.883     2.10
elaps:  c-eigval        400       0.001       0.399     0.95
elaps:  c-buildHS       400       0.000       0.033     0.08
elaps:  cdiag           800       0.001       0.751     1.78
elaps:  cdiag1          800       0.000       0.066     0.16
elaps:  cdiag2          800       0.000       0.089     0.21
elaps:  cdiag3          800       0.001       0.508     1.21
elaps:  cdiag4          800       0.000       0.034     0.08
elaps:  c-eigvec        400       0.001       0.412     0.98
elaps:  c-buildD        400       0.000       0.026     0.06
elaps:  DHSCF4          100       0.040       3.983     9.47
elaps:  dfscf           100       0.030       2.997     7.12
elaps:  overfsm         100       0.000       0.037     0.09
elaps:  optical           1       0.000       0.000     0.00
  
>> End of run:  24-MAR-2013  18:29:19
