Siesta Version: siesta-3.2
Architecture  : SIESTA_ARCH
Compiler flags: FFLAGS
PARALLEL version
NetCDF support

* Running on    4 nodes in parallel
>> Start of run:  24-MAR-2013  18:29:23

                           ***********************       
                           *  WELCOME TO SIESTA  *       
                           ***********************       

reinit: Reading from standard input
************************** Dump of input data file ****************************
#
# MgCO3 in primitive cell. SZ. Nose-Parrinello-Rahman. Harris
#
SystemName	MgCo3 R-3c Harris -- SZ, 50 R -- NPR at 10 Gpa, 500K
SystemLabel	md_npr
NumberOfSpecies		3
NumberOfAtoms	       10
%block ChemicalSpeciesLabel
      1      12     Mg
      2       6     C
      3       8     O
%endblock ChemicalSpeciesLabel
PAO.BasisSize  SZ
Diag.Divide-and-Conquer F
# Rhombohedral primitive cell
# (HEX 3-fold cell had A=4.635 and C=15.023, so alpha=48.179 degrees
#  and a=5.67783 Ang)
LatticeConstant     5.67783 Ang
%block LatticeParameters
1.0 1.0 1.0 48.179 48.179 48.179
%endblock LatticeParameters
AtomicCoordinatesFormat    Fractional
%block AtomicCoordinatesAndAtomicSpecies
  0.0         0.0         0.0      1
  0.5         0.5         0.5      1
  0.25        0.25        0.25     2
 -0.25       -0.25       -0.25     2
  0.5274     -0.0274      0.25     3
  0.25        0.5274     -0.0274   3
 -0.0274      0.25        0.5274   3
 -0.5274      0.0274     -0.25     3
 -0.25       -0.5274      0.0274   3
  0.0274     -0.25       -0.5274   3
%endblock AtomicCoordinatesAndAtomicSpecies
kgrid_cutoff 2.0 Ang
Solution.Method       diagon
MeshCutoff             50 Ry
DM.NumberBroyden       4
DM.UseSaveDM           T
DM.MixingWeight        0.1         # New DM amount for next SCF cycle
DM.Tolerance           1.d-3       # Tolerance in maximum difference
                                   # between input and output DM
MaxSCFIterations       20
WriteCoorStep      .true.
WriteForces        .true.
HarrisFunctional T
WriteMDHistory     .true.
MD.UseSaveXV       T
MD.TypeOfRun         NoseParrinelloRahman
MD.Target-pressure   10.0 GPa
MD.Target-temperature   500 K
MD.Initial-temperature   300 K
MD.Initial.Time.Step      1
MD.Final.Time.Step        10
MD.Length.Time.Step       0.3 fs
************************** End of input data file *****************************

reinit: -----------------------------------------------------------------------
reinit: System Name: MgCo3 R-3c Harris -- SZ, 50 R -- NPR at 10 Gpa, 500K
reinit: -----------------------------------------------------------------------
reinit: System Label: md_npr                                                      
reinit: -----------------------------------------------------------------------

initatom: Reading input for the pseudopotentials and atomic orbitals ----------
 Species number:            1  Label: Mg Atomic number:          12
 Species number:            2  Label: C Atomic number:           6
 Species number:            3  Label: O Atomic number:           8
Ground state valence configuration:   3s02
Reading pseudopotential information in formatted form from Mg.psf

Valence configuration for pseudopotential generation:
3s( 2.00) rc: 2.59
3p( 0.00) rc: 2.59
3d( 0.00) rc: 2.59
4f( 0.00) rc: 2.59
Ground state valence configuration:   2s02  2p02
Reading pseudopotential information in formatted form from C.psf

Valence configuration for pseudopotential generation:
2s( 2.00) rc: 1.49
2p( 2.00) rc: 1.52
3d( 0.00) rc: 1.58
Ground state valence configuration:   2s02  2p04
Reading pseudopotential information in formatted form from O.psf

Valence configuration for pseudopotential generation:
2s( 2.00) rc: 1.14
2p( 4.00) rc: 1.14
3d( 0.00) rc: 1.14
4f( 0.00) rc: 1.14
For Mg, standard SIESTA heuristics set lmxkb to 1
 (one more than the basis l, including polarization orbitals).
Use PS.lmax or PS.KBprojectors blocks to override.
For C, standard SIESTA heuristics set lmxkb to 2
 (one more than the basis l, including polarization orbitals).
Use PS.lmax or PS.KBprojectors blocks to override.
For O, standard SIESTA heuristics set lmxkb to 2
 (one more than the basis l, including polarization orbitals).
Use PS.lmax or PS.KBprojectors blocks to override.

<basis_specs>
===============================================================================
Mg                   Z=  12    Mass=  24.310        Charge= 0.17977+309
Lmxo=0 Lmxkb= 1    BasisType=split      Semic=F
L=0  Nsemic=0  Cnfigmx=3
          n=1  nzeta=1  polorb=0
            splnorm:   0.15000    
               vcte:    0.0000    
               rinn:    0.0000    
                rcs:    0.0000    
            lambdas:    1.0000    
-------------------------------------------------------------------------------
L=0  Nkbl=1  erefs: 0.17977+309
L=1  Nkbl=1  erefs: 0.17977+309
===============================================================================
</basis_specs>

atom: Called for Mg                    (Z =  12)

read_vps: Pseudopotential generation method:
read_vps: ATM3      Troullier-Martins                       
Total valence charge:    2.00000

xc_check: Exchange-correlation functional:
xc_check: Ceperley-Alder
V l=0 = -2*Zval/r beyond r=  3.5878
V l=1 = -2*Zval/r beyond r=  3.5878
All V_l potentials equal beyond r=  2.5600
This should be close to max(r_c) in ps generation
All pots = -2*Zval/r beyond r=  3.5878
Using large-core scheme for Vlocal

atom: Estimated core radius    3.58779

atom: Including non-local core corrections could be a good idea
atom: Maximum radius for 4*pi*r*r*local-pseudopot. charge    3.91588
atom: Maximum radius for r*vlocal+2*Zval:    3.63292
GHOST: No ghost state for L =  0
GHOST: No ghost state for L =  1

KBgen: Kleinman-Bylander projectors: 
   l= 0   rc=  2.657845   el= -0.351328   Ekb=  2.184400   kbcos=  0.257081
   l= 1   rc=  2.657845   el= -0.101748   Ekb=  0.525536   kbcos=  0.270508

KBgen: Total number of  Kleinman-Bylander projectors:    4
atom: -------------------------------------------------------------------------

atom: SANKEY-TYPE ORBITALS:

SPLIT: Orbitals with angular momentum L= 0

SPLIT: Basis orbitals for state 3s

SPLIT: PAO cut-off radius determined from an
SPLIT: energy shift=  0.020000 Ry

   izeta = 1
                 lambda =    1.000000
                     rc =    6.619780
                 energy =   -0.332103
                kinetic =    0.289627
    potential(screened) =   -0.621729
       potential(ionic) =   -1.387191
atom: Total number of Sankey-type orbitals:  1

atm_pop: Valence configuration (for local Pseudopot. screening):
 3s( 2.00)                                                            
Vna: chval, zval:    2.00000   2.00000

Vna:  Cut-off radius for the neutral-atom potential:   6.619780

atom: _________________________________________________________________________

<basis_specs>
===============================================================================
C                    Z=   6    Mass=  12.010        Charge= 0.17977+309
Lmxo=1 Lmxkb= 2    BasisType=split      Semic=F
L=0  Nsemic=0  Cnfigmx=2
          n=1  nzeta=1  polorb=0
            splnorm:   0.15000    
               vcte:    0.0000    
               rinn:    0.0000    
                rcs:    0.0000    
            lambdas:    1.0000    
L=1  Nsemic=0  Cnfigmx=2
          n=1  nzeta=1  polorb=0
            splnorm:   0.15000    
               vcte:    0.0000    
               rinn:    0.0000    
                rcs:    0.0000    
            lambdas:    1.0000    
-------------------------------------------------------------------------------
L=0  Nkbl=1  erefs: 0.17977+309
L=1  Nkbl=1  erefs: 0.17977+309
L=2  Nkbl=1  erefs: 0.17977+309
===============================================================================
</basis_specs>

atom: Called for C                     (Z =   6)

read_vps: Pseudopotential generation method:
read_vps: ATM3      Troullier-Martins                       
Total valence charge:    4.00000

xc_check: Exchange-correlation functional:
xc_check: Ceperley-Alder
V l=0 = -2*Zval/r beyond r=  1.4666
V l=1 = -2*Zval/r beyond r=  1.5038
V l=2 = -2*Zval/r beyond r=  1.5612
All V_l potentials equal beyond r=  1.5612
This should be close to max(r_c) in ps generation
All pots = -2*Zval/r beyond r=  1.5612

VLOCAL1: 99.0% of the norm of Vloc inside     17.809 Ry
VLOCAL1: 99.9% of the norm of Vloc inside     40.586 Ry
atom: Maximum radius for 4*pi*r*r*local-pseudopot. charge    1.88329
atom: Maximum radius for r*vlocal+2*Zval:    1.62091
GHOST: No ghost state for L =  0
GHOST: No ghost state for L =  1
GHOST: No ghost state for L =  2

KBgen: Kleinman-Bylander projectors: 
   l= 0   rc=  1.747182   el= -1.001947   Ekb=  5.181700   kbcos=  0.300603
   l= 1   rc=  1.747182   el= -0.398598   Ekb= -4.328763   kbcos= -0.367074
   l= 2   rc=  1.955272   el=  0.002326   Ekb= -1.016175   kbcos= -0.009979

KBgen: Total number of  Kleinman-Bylander projectors:    9
atom: -------------------------------------------------------------------------

atom: SANKEY-TYPE ORBITALS:

SPLIT: Orbitals with angular momentum L= 0

SPLIT: Basis orbitals for state 2s

SPLIT: PAO cut-off radius determined from an
SPLIT: energy shift=  0.020000 Ry

   izeta = 1
                 lambda =    1.000000
                     rc =    4.191849
                 energy =   -0.983897
                kinetic =    0.886956
    potential(screened) =   -1.870853
       potential(ionic) =   -5.479661

SPLIT: Orbitals with angular momentum L= 1

SPLIT: Basis orbitals for state 2p

SPLIT: PAO cut-off radius determined from an
SPLIT: energy shift=  0.020000 Ry

   izeta = 1
                 lambda =    1.000000
                     rc =    4.870301
                 energy =   -0.379093
                kinetic =    2.545357
    potential(screened) =   -2.924450
       potential(ionic) =   -6.433151
atom: Total number of Sankey-type orbitals:  4

atm_pop: Valence configuration (for local Pseudopot. screening):
 2s( 2.00)                                                            
 2p( 2.00)                                                            
Vna: chval, zval:    4.00000   4.00000

Vna:  Cut-off radius for the neutral-atom potential:   4.870301

atom: _________________________________________________________________________

<basis_specs>
===============================================================================
O                    Z=   8    Mass=  16.000        Charge= 0.17977+309
Lmxo=1 Lmxkb= 2    BasisType=split      Semic=F
L=0  Nsemic=0  Cnfigmx=2
          n=1  nzeta=1  polorb=0
            splnorm:   0.15000    
               vcte:    0.0000    
               rinn:    0.0000    
                rcs:    0.0000    
            lambdas:    1.0000    
L=1  Nsemic=0  Cnfigmx=2
          n=1  nzeta=1  polorb=0
            splnorm:   0.15000    
               vcte:    0.0000    
               rinn:    0.0000    
                rcs:    0.0000    
            lambdas:    1.0000    
-------------------------------------------------------------------------------
L=0  Nkbl=1  erefs: 0.17977+309
L=1  Nkbl=1  erefs: 0.17977+309
L=2  Nkbl=1  erefs: 0.17977+309
===============================================================================
</basis_specs>

atom: Called for O                     (Z =   8)

read_vps: Pseudopotential generation method:
read_vps: ATM3      Troullier-Martins                       
Total valence charge:    6.00000

xc_check: Exchange-correlation functional:
xc_check: Ceperley-Alder
V l=0 = -2*Zval/r beyond r=  1.1278
V l=1 = -2*Zval/r beyond r=  1.1278
V l=2 = -2*Zval/r beyond r=  1.1278
All V_l potentials equal beyond r=  1.1278
This should be close to max(r_c) in ps generation
All pots = -2*Zval/r beyond r=  1.1278

VLOCAL1: 99.0% of the norm of Vloc inside     34.126 Ry
VLOCAL1: 99.9% of the norm of Vloc inside     77.774 Ry
atom: Maximum radius for 4*pi*r*r*local-pseudopot. charge    1.37759
atom: Maximum radius for r*vlocal+2*Zval:    1.18566
GHOST: No ghost state for L =  0
GHOST: No ghost state for L =  1
GHOST: No ghost state for L =  2

KBgen: Kleinman-Bylander projectors: 
   l= 0   rc=  1.294105   el= -1.742414   Ekb=  9.135903   kbcos=  0.326910
   l= 1   rc=  1.294105   el= -0.676589   Ekb= -8.124878   kbcos= -0.395047
   l= 2   rc=  1.448233   el=  0.002386   Ekb= -2.039267   kbcos= -0.003484

KBgen: Total number of  Kleinman-Bylander projectors:    9
atom: -------------------------------------------------------------------------

atom: SANKEY-TYPE ORBITALS:

SPLIT: Orbitals with angular momentum L= 0

SPLIT: Basis orbitals for state 2s

SPLIT: PAO cut-off radius determined from an
SPLIT: energy shift=  0.020000 Ry

   izeta = 1
                 lambda =    1.000000
                     rc =    3.305093
                 energy =   -1.723766
                kinetic =    1.614911
    potential(screened) =   -3.338677
       potential(ionic) =  -11.304675

SPLIT: Orbitals with angular momentum L= 1

SPLIT: Basis orbitals for state 2p

SPLIT: PAO cut-off radius determined from an
SPLIT: energy shift=  0.020000 Ry

   izeta = 1
                 lambda =    1.000000
                     rc =    3.937239
                 energy =   -0.658841
                kinetic =    5.005986
    potential(screened) =   -5.664827
       potential(ionic) =  -13.452360
atom: Total number of Sankey-type orbitals:  4

atm_pop: Valence configuration (for local Pseudopot. screening):
 2s( 2.00)                                                            
 2p( 4.00)                                                            
Vna: chval, zval:    6.00000   6.00000

Vna:  Cut-off radius for the neutral-atom potential:   3.937239

atom: _________________________________________________________________________

prinput: Basis input ----------------------------------------------------------

PAO.BasisType split     

%block ChemicalSpeciesLabel
    1   12 Mg                      # Species index, atomic number, species label
    2    6 C                       # Species index, atomic number, species label
    3    8 O                       # Species index, atomic number, species label
%endblock ChemicalSpeciesLabel

%block PAO.Basis                 # Define Basis set
Mg                    1                    # Species label, number of l-shells
 n=3   0   1                         # n, l, Nzeta 
   6.620   
   1.000   
C                     2                    # Species label, number of l-shells
 n=2   0   1                         # n, l, Nzeta 
   4.192   
   1.000   
 n=2   1   1                         # n, l, Nzeta 
   4.870   
   1.000   
O                     2                    # Species label, number of l-shells
 n=2   0   1                         # n, l, Nzeta 
   3.305   
   1.000   
 n=2   1   1                         # n, l, Nzeta 
   3.937   
   1.000   
%endblock PAO.Basis

prinput: ----------------------------------------------------------------------

Dumping basis to NetCDF file Mg.ion.nc
Dumping basis to NetCDF file C.ion.nc
Dumping basis to NetCDF file O.ion.nc
coor:   Atomic-coordinates input format  =     Fractional

siesta: WARNING: XV file not found

siesta: Atomic coordinates (Bohr) and species
siesta:      0.00000   0.00000   0.00000  1        1
siesta:     12.51930   5.59740   3.66414  1        2
siesta:      6.25965   2.79870   1.83207  2        3
siesta:     -6.25965  -2.79870  -1.83207  2        4
siesta:      7.25136   0.58061   1.83207  3        5
siesta:      6.25965   4.12944  -0.20079  3        6
siesta:      5.26794   3.68605   3.86493  3        7
siesta:     -7.25136  -0.58061  -1.83207  3        8
siesta:     -6.25965  -4.12944   0.20079  3        9
siesta:     -5.26794  -3.68605  -3.86493  3       10

siesta: System type = bulk      

initatomlists: Number of atoms, orbitals, and projectors:     10    34    80

siesta: ******************** Simulation parameters ****************************
siesta:
siesta: The following are some of the parameters of the simulation.
siesta: A complete list of the parameters used, including default values,
siesta: can be found in file out.fdf
siesta:
redata: Non-Collinear-spin run           =     F
redata: SpinPolarized (Up/Down) run      =     F
redata: Number of spin components        =     1
redata: Long output                      =     F
redata: Number of Atomic Species         =        3
redata: Charge density info will appear in .RHO file
redata: Write Mulliken Pop.              =     NO
redata: Mesh Cutoff                      =    50.0000  Ry
redata: Net charge of the system         =     0.0000 |e|
redata: Max. number of SCF Iter          =       20
redata: Broyden mixing with     4 saved histories.
redata: Mix DM in first SCF step ?       =     F
redata: Write Pulay info on disk?        =     F
redata: Discard 1st Pulay DM after  kick =     F
redata: New DM Mixing Weight             =     0.1000
redata: New DM Occupancy tolerance       = 0.000000000001
redata: No kicks to SCF
redata: DM Mixing Weight for Kicks       =     0.5000
redata: DM Tolerance for SCF             =     0.001000
redata: Require Energy convergence for SCF =     F
redata: DM Energy tolerance for SCF      =     0.000100 eV
redata: Require Harris convergence for SCF =     F
redata: DM Harris energy tolerance for SCF =     0.000100 eV
redata: Using Saved Data (generic)   =     F
redata: Use continuation files for DM    =     T
redata: Neglect nonoverlap interactions  =     F
redata: Method of Calculation            =     Diagonalization
redata: Divide and Conquer               =     F
redata: Electronic Temperature           =     0.0019  Ry
redata: Fix the spin of the system       =     F
redata: Dynamics option                  =     Nose-Parrinello-Rahman MD run
redata: Initial MD time step             =        1
redata:   Final MD time step             =       10
redata: Length of MD time step           =     0.3000  fs
redata: Initial Temperature of MD run    =   300.0000  K
redata: Perform a MD quench              =     F
redata: Nose mass                        =   100.0000  Ry/fs**2
redata: Parrinello-Rahman mass           =   100.0000  Ry/fs**2
redata: Target Temperature               =   500.0000  Kelvin
redata: Target Pressure                  =     0.0007  Ry/Bohr**3
redata: ***********************************************************************
Total number of electrons:    48.000000
Total ionic charge:    48.000000

* ProcessorY, Blocksize:    2   9

 Kpoints in:            1 . Kpoints trimmed:            1

siesta: k-grid: Number of k-points =     1
siesta: k-grid: Cutoff (effective) =     2.317 Ang
siesta: k-grid: Supercell and displacements
siesta: k-grid:    1   0   0      0.000
siesta: k-grid:    0   1   0      0.000
siesta: k-grid:    0   0   1      0.000

* Maximum dynamic memory allocated =     3 MB

siesta:                 ==============================
                            Begin MD step =      1
                        ==============================

outcoor: Atomic coordinates (fractional):                   
    0.00000000    0.00000000    0.00000000   1       1  Mg
    0.50000000    0.50000000    0.50000000   1       2  Mg
    0.25000000    0.25000000    0.25000000   2       3  C
   -0.25000000   -0.25000000   -0.25000000   2       4  C
    0.52740000   -0.02740000    0.25000000   3       5  O
    0.25000000    0.52740000   -0.02740000   3       6  O
   -0.02740000    0.25000000    0.52740000   3       7  O
   -0.52740000    0.02740000   -0.25000000   3       8  O
   -0.25000000   -0.52740000    0.02740000   3       9  O
    0.02740000   -0.25000000   -0.52740000   3      10  O

outcell: Unit cell vectors (Ang):
        5.677830    0.000000    0.000000
        3.786009    4.231299    0.000000
        3.786009    1.692731    3.877957

outcell: Cell vector modules (Ang)   :    5.677830    5.677830    5.677830
outcell: Cell angles (23,13,12) (deg):     48.1790     48.1790     48.1790
outcell: Cell volume (Ang**3)        :     93.1663
 Folding of H and S is implicitly performed
New_DM. Step:     1
Initializing Density Matrix...

InitMesh: MESH =    24 x    24 x    24 =       13824
InitMesh: Mesh cutoff (required, used) =    50.000    63.482 Ry

* Maximum dynamic memory allocated =     3 MB

stepf: Fermi-Dirac step function
 Broyden: No of relevant DM elements:         1156
 maxit for broyden:            4
 cycle on maxit:  T
 variable weight:  T
 initial alpha:   0.10000000000000001     

siesta: Program's energy decomposition (eV):
siesta: Ebs     =      -718.671436
siesta: Eions   =      5228.674091
siesta: Ena     =      1092.429444
siesta: Ekin    =      2069.792750
siesta: Enl     =      -254.036133
siesta: DEna    =        15.961142
siesta: DUscf   =         0.158223
siesta: DUext   =         0.000000
siesta: Exc     =      -679.402762
siesta: eta*DQ  =         0.000000
siesta: Emadel  =         0.000000
siesta: Emeta   =         0.000000
siesta: Emolmec =         0.000000
siesta: Ekinion =         0.000000
siesta: Eharris =     -2966.596225
siesta: Etot    =     -2983.771427
siesta: FreeEng =     -2983.771427

siesta: Eharris(eV) =   -2966.596225


siesta: Eharris(eV) =   -2966.596225

timer: Routine,Calls,Time,% = IterSCF        1       0.947  35.42
elaps: Routine,Calls,Wall,% = IterSCF        1       0.237  35.11

siesta: E_KS - E_eggbox =     -2945.6640

siesta: Atomic forces (eV/Ang):
     1   -0.000000   -0.000000   -0.000000
     2   -0.000000   -0.000000    0.000000
     3    0.000001   -0.000002   -0.000005
     4   -0.000002    0.000002    0.000006
     5    2.998817   -6.707233   -0.000007
     6   -0.000012    4.024018   -6.147139
     7   -2.998821    2.683236    6.147162
     8   -2.998814    6.707234    0.000008
     9    0.000012   -4.024016    6.147141
    10    2.998822   -2.683237   -6.147164
----------------------------------------
   Tot    0.000002    0.000001    0.000001
----------------------------------------
   Max    6.707234
   Res    3.285729    sqrt( Sum f_i^2 / 3N )
----------------------------------------
   Max    6.707234    constrained

Stress-tensor-Voigt (kbar):      718.92      461.37      422.95      144.10       40.04       94.00
(Free)E + p*V (eV/cell)    -2976.7397
Target enthalpy (eV/cell)    -2939.8491

siesta: Stress tensor (static) (eV/Ang**3):
         0.449996    0.089162    0.058367
         0.089162    0.290438    0.026096
         0.058367    0.026096    0.267656

siesta: Pressure (static):       -538.38529892  kBar

siesta: Stress tensor (total) (eV/Ang**3):
         0.448710    0.089938    0.058672
         0.089938    0.287963    0.024988
         0.058672    0.024988    0.263979

siesta: Pressure (total):       -534.41308518  kBar

siesta: Temp_ion =     300.018 K

* Maximum dynamic memory allocated =     3 MB

siesta:                 ==============================
                            Begin MD step =      2
                        ==============================

outcoor: Atomic coordinates (fractional):                   
    0.00042897   -0.00046577    0.00007973   1       1  Mg
    0.49990385    0.50009200    0.49996813   1       2  Mg
    0.25034373    0.24992701    0.24971169   2       3  C
   -0.25037729   -0.24993316   -0.24959317   2       4  C
    0.52728513   -0.02704558    0.24960725   3       5  O
    0.24932700    0.52737004   -0.02666610   3       6  O
   -0.02759875    0.25028246    0.52746845   3       7  O
   -0.52729063    0.02732066   -0.25037893   3       8  O
   -0.24961137   -0.52747813    0.02710294   3       9  O
    0.02740812   -0.24987695   -0.52729528   3      10  O

outcell: Unit cell vectors (Ang):
        5.677710    0.000072    0.000047
        3.785983    4.231160    0.000048
        3.785983    1.692720    3.877812

outcell: Cell vector modules (Ang)   :    5.677710    5.677709    5.677710
outcell: Cell angles (23,13,12) (deg):     48.1775     48.1775     48.1775
outcell: Cell volume (Ang**3)        :     93.1559
 Folding of H and S is implicitly performed
New_DM. Step:     2
Initializing Density Matrix...

InitMesh: MESH =    24 x    24 x    24 =       13824
InitMesh: Mesh cutoff (required, used) =    50.000    63.484 Ry

siesta: Eharris(eV) =   -2966.568674


siesta: Eharris(eV) =   -2966.568674


siesta: Atomic forces (eV/Ang):
     1   -0.007316    0.008267   -0.007406
     2   -0.000512    0.003792    0.000083
     3   -0.098862    0.078825    0.225314
     4    0.071540   -0.079675   -0.141953
     5    3.035532   -6.847640    0.091169
     6    0.054446    4.046422   -6.360243
     7   -2.960049    2.608469    6.094464
     8   -3.064733    6.822428    0.077671
     9   -0.036176   -4.023547    6.286288
    10    2.970279   -2.666435   -6.085895
----------------------------------------
   Tot   -0.035851   -0.049093    0.179491
----------------------------------------
   Max    6.847640
   Res    3.318491    sqrt( Sum f_i^2 / 3N )
----------------------------------------
   Max    6.847640    constrained

Stress-tensor-Voigt (kbar):      717.21      452.68      415.55      146.36       43.78       94.27
(Free)E + p*V (eV/cell)    -2976.3724
Target enthalpy (eV/cell)    -2939.8309

siesta: Stress tensor (static) (eV/Ang**3):
         0.448930    0.090570    0.058533
         0.090570    0.285011    0.028434
         0.058534    0.028433    0.263041

siesta: Pressure (static):       -532.45236522  kBar

siesta: Stress tensor (total) (eV/Ang**3):
         0.447644    0.091347    0.058838
         0.091347    0.282535    0.027326
         0.058840    0.027326    0.259363

siesta: Pressure (total):       -528.47981746  kBar

siesta: Temp_ion =     277.682 K

* Maximum dynamic memory allocated =     3 MB

siesta:                 ==============================
                            Begin MD step =      3
                        ==============================

outcoor: Atomic coordinates (fractional):                   
    0.00085795   -0.00093154    0.00015940   1       1  Mg
    0.49980766    0.50018406    0.49993625   1       2  Mg
    0.25068372    0.24985368    0.24942749   2       3  C
   -0.25075179   -0.24986662   -0.24918889   2       4  C
    0.52725671   -0.02677879    0.24921569   3       5  O
    0.24865539    0.52742697   -0.02602044   3       6  O
   -0.02788168    0.25056431    0.52762159   3       7  O
   -0.52726869    0.02732778   -0.25075684   3       8  O
   -0.24922378   -0.52764247    0.02689318   3       9  O
    0.02750091   -0.24975401   -0.52727513   3      10  O

outcell: Unit cell vectors (Ang):
        5.677469    0.000216    0.000141
        3.785930    4.230886    0.000142
        3.785931    1.692697    3.877523

outcell: Cell vector modules (Ang)   :    5.677469    5.677470    5.677471
outcell: Cell angles (23,13,12) (deg):     48.1746     48.1746     48.1746
outcell: Cell volume (Ang**3)        :     93.1350
 Folding of H and S is implicitly performed
New_DM. Step:     3
Initializing Density Matrix...

InitMesh: MESH =    24 x    24 x    24 =       13824
InitMesh: Mesh cutoff (required, used) =    50.000    63.487 Ry

siesta: Eharris(eV) =   -2966.557237


siesta: Eharris(eV) =   -2966.557237


siesta: Atomic forces (eV/Ang):
     1   -0.008574    0.020179   -0.010313
     2    0.004597   -0.001578   -0.000252
     3   -0.194451    0.154888    0.443545
     4    0.139433   -0.157204   -0.278165
     5    3.060381   -6.926367    0.149826
     6    0.095337    4.059503   -6.497937
     7   -2.910131    2.516453    6.025428
     8   -3.086302    6.879688    0.122855
     9   -0.061705   -4.012216    6.347036
    10    2.933717   -2.643353   -6.010873
----------------------------------------
   Tot   -0.027699   -0.110008    0.291151
----------------------------------------
   Max    6.926367
   Res    3.329386    sqrt( Sum f_i^2 / 3N )
----------------------------------------
   Max    6.926367    constrained

Stress-tensor-Voigt (kbar):      717.81      449.37      417.46      146.50       47.26       92.28
(Free)E + p*V (eV/cell)    -2976.3376
Target enthalpy (eV/cell)    -2939.8198

siesta: Stress tensor (static) (eV/Ang**3):
         0.449367    0.090577    0.057374
         0.090577    0.282886    0.030687
         0.057376    0.030686    0.263677

siesta: Pressure (static):       -531.89127990  kBar

siesta: Stress tensor (total) (eV/Ang**3):
         0.448017    0.091440    0.057591
         0.091439    0.280471    0.029499
         0.057594    0.029499    0.260556

siesta: Pressure (total):       -528.21396654  kBar

siesta: Temp_ion =     269.097 K

* Maximum dynamic memory allocated =     3 MB

siesta:                 ==============================
                            Begin MD step =      4
                        ==============================

outcoor: Atomic coordinates (fractional):                   
    0.00128695   -0.00139725    0.00023901   1       1  Mg
    0.49971148    0.50027613    0.49990437   1       2  Mg
    0.25101633    0.24977967    0.24915141   2       3  C
   -0.25112083   -0.24980066   -0.24878964   2       4  C
    0.52731533   -0.02660098    0.24882610   3       5  O
    0.24798610    0.52757175   -0.02546488   3       6  O
   -0.02824720    0.25084480    0.52785853   3       7  O
   -0.52733514    0.02742188   -0.25113315   3       8  O
   -0.24883786   -0.52789326    0.02677156   3       9  O
    0.02767744   -0.24963129   -0.52733852   3      10  O

outcell: Unit cell vectors (Ang):
        5.677109    0.000429    0.000283
        3.785850    4.230477    0.000282
        3.785853    1.692660    3.877091

outcell: Cell vector modules (Ang)   :    5.677110    5.677112    5.677113
outcell: Cell angles (23,13,12) (deg):     48.1703     48.1703     48.1703
outcell: Cell volume (Ang**3)        :     93.1039
 Folding of H and S is implicitly performed
New_DM. Step:     4
Initializing Density Matrix...

InitMesh: MESH =    24 x    24 x    24 =       13824
InitMesh: Mesh cutoff (required, used) =    50.000    63.492 Ry

siesta: Eharris(eV) =   -2966.562257


siesta: Eharris(eV) =   -2966.562257


siesta: Atomic forces (eV/Ang):
     1   -0.017965    0.028883   -0.014796
     2    0.009285   -0.006900    0.003466
     3   -0.287830    0.232028    0.659195
     4    0.210165   -0.233667   -0.413428
     5    3.078206   -6.984917    0.205844
     6    0.136735    4.060238   -6.604016
     7   -2.855081    2.423995    5.944525
     8   -3.099413    6.915605    0.166250
     9   -0.091100   -3.978329    6.390538
    10    2.891061   -2.614520   -5.921311
----------------------------------------
   Tot   -0.025935   -0.157583    0.416266
----------------------------------------
   Max    6.984917
   Res    3.331771    sqrt( Sum f_i^2 / 3N )
----------------------------------------
   Max    6.984917    constrained

Stress-tensor-Voigt (kbar):      718.25      447.19      420.76      146.68       50.13       90.24
(Free)E + p*V (eV/cell)    -2976.3517
Target enthalpy (eV/cell)    -2939.8160

siesta: Stress tensor (static) (eV/Ang**3):
         0.449743    0.090541    0.056154
         0.090541    0.281616    0.032526
         0.056158    0.032525    0.265328

siesta: Pressure (static):       -532.29545759  kBar

siesta: Stress tensor (total) (eV/Ang**3):
         0.448291    0.091551    0.056317
         0.091551    0.279109    0.031290
         0.056321    0.031289    0.262614

siesta: Pressure (total):       -528.73094566  kBar

siesta: Temp_ion =     274.647 K

* Maximum dynamic memory allocated =     3 MB

siesta:                 ==============================
                            Begin MD step =      5
                        ==============================

outcoor: Atomic coordinates (fractional):                   
    0.00171592   -0.00186289    0.00031851   1       1  Mg
    0.49961534    0.50036818    0.49987250   1       2  Mg
    0.25133794    0.24970468    0.24888741   2       3  C
   -0.25148167   -0.24973559   -0.24839786   2       4  C
    0.52746142   -0.02651321    0.24843920   3       5  O
    0.24732003    0.52780506   -0.02500088   3       6  O
   -0.02869368    0.25112323    0.52817820   3       7  O
   -0.52749070    0.02760323   -0.25150729   3       8  O
   -0.24845438   -0.52823040    0.02673873   3       9  O
    0.02793662   -0.24950892   -0.52748428   3      10  O

outcell: Unit cell vectors (Ang):
        5.676629    0.000714    0.000474
        3.785742    4.229935    0.000467
        3.785750    1.692610    3.876513

outcell: Cell vector modules (Ang)   :    5.676630    5.676636    5.676635
outcell: Cell angles (23,13,12) (deg):     48.1646     48.1644     48.1646
outcell: Cell volume (Ang**3)        :     93.0624
 Folding of H and S is implicitly performed
New_DM. Step:     5
Initializing Density Matrix...

InitMesh: MESH =    24 x    24 x    24 =       13824
InitMesh: Mesh cutoff (required, used) =    50.000    63.499 Ry

siesta: Eharris(eV) =   -2966.583755


siesta: Eharris(eV) =   -2966.583755


siesta: Atomic forces (eV/Ang):
     1   -0.026276    0.044977   -0.018088
     2    0.011322   -0.000855   -0.001565
     3   -0.377125    0.304186    0.859825
     4    0.274036   -0.304680   -0.535450
     5    3.084368   -7.022809    0.265424
     6    0.179207    4.039756   -6.683085
     7   -2.794516    2.326987    5.845822
     8   -3.099715    6.925286    0.214918
     9   -0.115372   -3.941729    6.413085
    10    2.840898   -2.581484   -5.820291
----------------------------------------
   Tot   -0.023174   -0.210365    0.540596
----------------------------------------
   Max    7.022809
   Res    3.324913    sqrt( Sum f_i^2 / 3N )
----------------------------------------
   Max    7.022809    constrained

Stress-tensor-Voigt (kbar):      719.02      446.53      425.88      146.08       52.86       88.16
(Free)E + p*V (eV/cell)    -2976.4407
Target enthalpy (eV/cell)    -2939.8198

siesta: Stress tensor (static) (eV/Ang**3):
         0.450368    0.089956    0.054874
         0.089955    0.281453    0.034248
         0.054879    0.034247    0.268275

siesta: Pressure (static):       -534.11614967  kBar

siesta: Stress tensor (total) (eV/Ang**3):
         0.448775    0.091175    0.055016
         0.091174    0.278698    0.032994
         0.055022    0.032993    0.265809

siesta: Pressure (total):       -530.47682314  kBar

siesta: Temp_ion =     294.400 K

* Maximum dynamic memory allocated =     3 MB

siesta:                 ==============================
                            Begin MD step =      6
                        ==============================

outcoor: Atomic coordinates (fractional):                   
    0.00214479   -0.00232836    0.00039788   1       1  Mg
    0.49951923    0.50046028    0.49984061   1       2  Mg
    0.25164516    0.24962844    0.24863918   2       3  C
   -0.25183186   -0.24967169   -0.24801578   2       4  C
    0.52769512   -0.02651634    0.24805578   3       5  O
    0.24665811    0.52812716   -0.02462953   3       6  O
   -0.02921927    0.25139894    0.52857933   3       7  O
   -0.52773579    0.02787179   -0.25187862   3       8  O
   -0.24807394   -0.52865365    0.02679505   3       9  O
    0.02827723   -0.24938702   -0.52771109   3      10  O

outcell: Unit cell vectors (Ang):
        5.676029    0.001069    0.000716
        3.785607    4.229260    0.000696
        3.785623    1.692545    3.875791

outcell: Cell vector modules (Ang)   :    5.676029    5.676043    5.676038
outcell: Cell angles (23,13,12) (deg):     48.1575     48.1571     48.1575
outcell: Cell volume (Ang**3)        :     93.0107
 Folding of H and S is implicitly performed
New_DM. Step:     6
Initializing Density Matrix...

InitMesh: MESH =    24 x    24 x    24 =       13824
InitMesh: Mesh cutoff (required, used) =    50.000    63.507 Ry

siesta: Eharris(eV) =   -2966.621780


siesta: Eharris(eV) =   -2966.621780


siesta: Atomic forces (eV/Ang):
     1   -0.026021    0.054635   -0.021036
     2    0.007485   -0.003510    0.004896
     3   -0.460815    0.371347    1.045206
     4    0.335878   -0.373143   -0.655579
     5    3.079067   -7.030055    0.328159
     6    0.216456    4.014947   -6.744015
     7   -2.691748    2.179895    5.701362
     8   -3.091953    6.921159    0.257295
     9   -0.140005   -3.890261    6.415018
    10    2.784458   -2.541851   -5.709705
----------------------------------------
   Tot    0.012801   -0.296836    0.621601
----------------------------------------
   Max    7.030055
   Res    3.306257    sqrt( Sum f_i^2 / 3N )
----------------------------------------
   Max    7.030055    constrained

Stress-tensor-Voigt (kbar):      721.52      447.61      431.83      144.34       56.58       85.01
(Free)E + p*V (eV/cell)    -2976.6158
Target enthalpy (eV/cell)    -2939.8311

siesta: Stress tensor (static) (eV/Ang**3):
         0.452100    0.088604    0.052896
         0.088604    0.282532    0.036550
         0.052903    0.036548    0.271900

siesta: Pressure (static):       -537.55355374  kBar

siesta: Stress tensor (total) (eV/Ang**3):
         0.450330    0.090093    0.053052
         0.090092    0.279373    0.035313
         0.053059    0.035312    0.269522

siesta: Pressure (total):       -533.65066250  kBar

siesta: Temp_ion =     328.219 K

* Maximum dynamic memory allocated =     3 MB

siesta:                 ==============================
                            Begin MD step =      7
                        ==============================

outcoor: Atomic coordinates (fractional):                   
    0.00257357   -0.00279363    0.00047711   1       1  Mg
    0.49942310    0.50055241    0.49980874   1       2  Mg
    0.25193481    0.24955071    0.24841015   2       3  C
   -0.25216898   -0.24960924   -0.24764558   2       4  C
    0.52801618   -0.02661091    0.24767667   3       5  O
    0.24600116    0.52853819   -0.02435172   3       6  O
   -0.02982109    0.25167089    0.52906005   3       7  O
   -0.52807065    0.02822738   -0.25224660   3       8  O
   -0.24769719   -0.52916248    0.02694064   3       9  O
    0.02869789   -0.24926569   -0.52801752   3      10  O

outcell: Unit cell vectors (Ang):
        5.675307    0.001495    0.001011
        3.785445    4.228452    0.000971
        3.785472    1.692465    3.874921

outcell: Cell vector modules (Ang)   :    5.675308    5.675333    5.675319
outcell: Cell angles (23,13,12) (deg):     48.1489     48.1482     48.1490
outcell: Cell volume (Ang**3)        :     92.9485
 Folding of H and S is implicitly performed
New_DM. Step:     7
Initializing Density Matrix...

InitMesh: MESH =    24 x    24 x    24 =       13824
InitMesh: Mesh cutoff (required, used) =    50.000    63.517 Ry

siesta: Eharris(eV) =   -2966.676013


siesta: Eharris(eV) =   -2966.676013


siesta: Atomic forces (eV/Ang):
     1   -0.033163    0.074495   -0.020950
     2    0.008400   -0.007228    0.005348
     3   -0.533711    0.435525    1.217688
     4    0.391461   -0.436598   -0.763655
     5    3.063212   -7.016096    0.383813
     6    0.248574    3.979011   -6.776174
     7   -2.622189    2.073373    5.584447
     8   -3.067687    6.886764    0.304221
     9   -0.163864   -3.830300    6.401980
    10    2.714422   -2.497418   -5.571680
----------------------------------------
   Tot    0.005454   -0.338472    0.765037
----------------------------------------
   Max    7.016096
   Res    3.281678    sqrt( Sum f_i^2 / 3N )
----------------------------------------
   Max    7.016096    constrained

Stress-tensor-Voigt (kbar):      722.99      448.49      438.24      143.21       59.03       82.33
(Free)E + p*V (eV/cell)    -2976.7789
Target enthalpy (eV/cell)    -2939.8493

siesta: Stress tensor (static) (eV/Ang**3):
         0.453234    0.087566    0.051175
         0.087565    0.283640    0.038029
         0.051183    0.038027    0.275975

siesta: Pressure (static):       -540.92677842  kBar

siesta: Stress tensor (total) (eV/Ang**3):
         0.451250    0.089382    0.051377
         0.089381    0.279921    0.036848
         0.051385    0.036846    0.273526

siesta: Pressure (total):       -536.57305008  kBar

siesta: Temp_ion =     375.850 K

* Maximum dynamic memory allocated =     3 MB

siesta:                 ==============================
                            Begin MD step =      8
                        ==============================

outcoor: Atomic coordinates (fractional):                   
    0.00300216   -0.00325860    0.00055621   1       1  Mg
    0.49932697    0.50064454    0.49977690   1       2  Mg
    0.25220400    0.24947128    0.24820349   2       3  C
   -0.25249084   -0.24954851   -0.24728924   2       4  C
    0.52842419   -0.02679714    0.24730259   3       5  O
    0.24534990    0.52903803   -0.02416796   3       6  O
   -0.03049709    0.25193840    0.52961886   3       7  O
   -0.52849515    0.02866945   -0.25261059   3       8  O
   -0.24732474   -0.52975623    0.02717542   3       9  O
    0.02919692   -0.24914514   -0.52840178   3      10  O

outcell: Unit cell vectors (Ang):
        5.674464    0.001993    0.001359
        3.785255    4.227513    0.001289
        3.785298    1.692368    3.873902

outcell: Cell vector modules (Ang)   :    5.674464    5.674507    5.674479
outcell: Cell angles (23,13,12) (deg):     48.1389     48.1377     48.1391
outcell: Cell volume (Ang**3)        :     92.8759
 Folding of H and S is implicitly performed
New_DM. Step:     8
Initializing Density Matrix...

InitMesh: MESH =    24 x    24 x    24 =       13824
InitMesh: Mesh cutoff (required, used) =    50.000    63.529 Ry

siesta: Eharris(eV) =   -2966.746062


siesta: Eharris(eV) =   -2966.746062


siesta: Atomic forces (eV/Ang):
     1   -0.044825    0.087727   -0.015654
     2    0.014593   -0.012167    0.001232
     3   -0.601602    0.494075    1.370029
     4    0.440631   -0.497078   -0.862324
     5    3.039376   -6.984609    0.437094
     6    0.282818    3.923133   -6.784250
     7   -2.537869    1.958909    5.395367
     8   -3.031776    6.832284    0.350314
     9   -0.196840   -3.699601    6.328894
    10    2.644206   -2.449391   -5.428445
----------------------------------------
   Tot    0.008713   -0.346718    0.792257
----------------------------------------
   Max    6.984609
   Res    3.240429    sqrt( Sum f_i^2 / 3N )
----------------------------------------
   Max    6.984609    constrained

Stress-tensor-Voigt (kbar):      725.35      452.34      448.58      141.86       59.72       79.17
(Free)E + p*V (eV/cell)    -2977.0944
Target enthalpy (eV/cell)    -2939.8739

siesta: Stress tensor (static) (eV/Ang**3):
         0.454954    0.086344    0.049127
         0.086342    0.286754    0.038366
         0.049136    0.038364    0.282657

siesta: Pressure (static):       -547.07695085  kBar

siesta: Stress tensor (total) (eV/Ang**3):
         0.452721    0.088545    0.049407
         0.088544    0.282324    0.037278
         0.049417    0.037276    0.279978

siesta: Pressure (total):       -542.08799725  kBar

siesta: Temp_ion =     436.821 K

* Maximum dynamic memory allocated =     3 MB

siesta:                 ==============================
                            Begin MD step =      9
                        ==============================

outcoor: Atomic coordinates (fractional):                   
    0.00343044   -0.00372321    0.00063522   1       1  Mg
    0.49923091    0.50073666    0.49974505   1       2  Mg
    0.25245006    0.24939002    0.24802204   2       3  C
   -0.25279542   -0.24948978   -0.24694855   2       4  C
    0.52891850   -0.02707505    0.24693425   3       5  O
    0.24470510    0.52962615   -0.02407845   3       6  O
   -0.03124461    0.25220108    0.53025330   3       7  O
   -0.52900888    0.02919721   -0.25296999   3       8  O
   -0.24695760   -0.53043298    0.02749852   3       9  O
    0.02977261   -0.24902553   -0.52886202   3      10  O

outcell: Unit cell vectors (Ang):
        5.673497    0.002564    0.001763
        3.785039    4.226440    0.001654
        3.785103    1.692255    3.872731

outcell: Cell vector modules (Ang)   :    5.673498    5.673563    5.673516
outcell: Cell angles (23,13,12) (deg):     48.1275     48.1256     48.1277
outcell: Cell volume (Ang**3)        :     92.7927
 Folding of H and S is implicitly performed
New_DM. Step:     9
Initializing Density Matrix...

InitMesh: MESH =    24 x    24 x    24 =       13824
InitMesh: Mesh cutoff (required, used) =    50.000    63.542 Ry

siesta: Eharris(eV) =   -2966.831042


siesta: Eharris(eV) =   -2966.831042


siesta: Atomic forces (eV/Ang):
     1   -0.053164    0.103660   -0.027232
     2    0.017989   -0.025652    0.008804
     3   -0.660182    0.545545    1.504270
     4    0.481423   -0.546573   -0.945308
     5    3.004222   -6.925415    0.490192
     6    0.311161    3.858413   -6.768422
     7   -2.392722    1.759403    5.206095
     8   -2.970303    6.687874    0.420736
     9   -0.222657   -3.602727    6.269997
    10    2.568652   -2.397540   -5.285301
----------------------------------------
   Tot    0.084419   -0.543012    0.873831
----------------------------------------
   Max    6.925415
   Res    3.187123    sqrt( Sum f_i^2 / 3N )
----------------------------------------
   Max    6.925415    constrained

Stress-tensor-Voigt (kbar):      728.94      460.10      458.12      137.98       61.83       75.92
(Free)E + p*V (eV/cell)    -2977.4946
Target enthalpy (eV/cell)    -2939.9040

siesta: Stress tensor (static) (eV/Ang**3):
         0.457475    0.083481    0.046984
         0.083480    0.292457    0.039550
         0.046995    0.039548    0.289000

siesta: Pressure (static):       -554.85659632  kBar

siesta: Stress tensor (total) (eV/Ang**3):
         0.454961    0.086122    0.047374
         0.086121    0.287170    0.038594
         0.047384    0.038592    0.285935

siesta: Pressure (total):       -549.05371803  kBar

siesta: Temp_ion =     510.296 K

* Maximum dynamic memory allocated =     3 MB

siesta:                 ==============================
                            Begin MD step =     10
                        ==============================

outcoor: Atomic coordinates (fractional):                   
    0.00385835   -0.00418735    0.00071405   1       1  Mg
    0.49913498    0.50082863    0.49971326   1       2  Mg
    0.25267068    0.24930678    0.24786830   2       3  C
   -0.25308103   -0.24943329   -0.24662506   2       4  C
    0.52949816   -0.02744435    0.24657237   3       5  O
    0.24406744    0.53030183   -0.02408311   3       6  O
   -0.03205972    0.25245745    0.53096091   3       7  O
   -0.52961061    0.02980861   -0.25332382   3       8  O
   -0.24659646   -0.53119135    0.02790928   3       9  O
    0.03042316   -0.24890699   -0.52939643   3      10  O

outcell: Unit cell vectors (Ang):
        5.672406    0.003210    0.002225
        3.784795    4.225233    0.002064
        3.784887    1.692124    3.871407

outcell: Cell vector modules (Ang)   :    5.672408    5.672502    5.672429
outcell: Cell angles (23,13,12) (deg):     48.1147     48.1118     48.1149
outcell: Cell volume (Ang**3)        :     92.6988
 Folding of H and S is implicitly performed
New_DM. Step:    10
Initializing Density Matrix...

InitMesh: MESH =    24 x    24 x    24 =       13824
InitMesh: Mesh cutoff (required, used) =    50.000    63.557 Ry

siesta: Eharris(eV) =   -2966.930107


siesta: Eharris(eV) =   -2966.930107


siesta: Atomic forces (eV/Ang):
     1   -0.054113    0.115384   -0.031613
     2    0.020871   -0.029050    0.010482
     3   -0.707869    0.589385    1.613781
     4    0.515499   -0.588740   -1.015065
     5    2.959496   -6.835788    0.540131
     6    0.340844    3.759694   -6.718836
     7   -2.308448    1.641424    5.047504
     8   -2.870638    6.543951    0.430777
     9   -0.251797   -3.474013    6.183271
    10    2.447404   -2.298694   -5.098710
----------------------------------------
   Tot    0.091248   -0.576447    0.961721
----------------------------------------
   Max    6.835788
   Res    3.123418    sqrt( Sum f_i^2 / 3N )
----------------------------------------
   Max    6.835788    constrained

Stress-tensor-Voigt (kbar):      733.07      467.71      468.24      133.98       64.19       72.08
(Free)E + p*V (eV/cell)    -2977.9126
Target enthalpy (eV/cell)    -2939.9383

siesta: Stress tensor (static) (eV/Ang**3):
         0.460368    0.080497    0.044449
         0.080496    0.298199    0.040852
         0.044461    0.040849    0.295851

siesta: Pressure (static):       -563.12683764  kBar

siesta: Stress tensor (total) (eV/Ang**3):
         0.457544    0.083625    0.044978
         0.083624    0.291917    0.040067
         0.044990    0.040064    0.292251

siesta: Pressure (total):       -556.34173900  kBar

siesta: Temp_ion =     595.420 K

* Maximum dynamic memory allocated =     3 MB

outcell: Unit cell vectors (Ang):
        5.671190    0.003933    0.002746
        3.784526    4.223891    0.002520
        3.784650    1.691976    3.869927

outcell: Cell vector modules (Ang)   :    5.671192    5.671322    5.671216
outcell: Cell angles (23,13,12) (deg):     48.1003     48.0963     48.1005
outcell: Cell volume (Ang**3)        :     92.5941

siesta: Program's energy decomposition (eV):
siesta: Ebs     =      -718.033082
siesta: Eions   =      5228.674091
siesta: Ena     =      1092.639312
siesta: Ekin    =      2397.886220
siesta: Enl     =      -404.393775
siesta: DEna    =      -103.574513
siesta: DUscf   =        24.442242
siesta: DUext   =         0.000000
siesta: Exc     =      -724.049461
siesta: eta*DQ  =         0.000000
siesta: Emadel  =         0.000000
siesta: Emeta   =         0.000000
siesta: Emolmec =         0.000000
siesta: Ekinion =         0.692649
siesta: Eharris =     -2966.237459
siesta: Etot    =     -2945.031417
siesta: FreeEng =     -2945.031417

siesta: Final energy (eV):
siesta:  Band Struct. =    -718.033082
siesta:       Kinetic =    2397.886220
siesta:       Hartree =    1097.134409
siesta:    Ext. field =       0.000000
siesta:   Exch.-corr. =    -724.049461
siesta:  Ion-electron =   -4178.366633
siesta:       Ion-ion =   -1538.328600
siesta:       Ekinion =       0.692649
siesta:         Total =   -2945.031417

siesta: Atomic forces (eV/Ang):
siesta:      1   -0.054113    0.115384   -0.031613
siesta:      2    0.020871   -0.029050    0.010482
siesta:      3   -0.707869    0.589385    1.613781
siesta:      4    0.515499   -0.588740   -1.015065
siesta:      5    2.959496   -6.835788    0.540131
siesta:      6    0.340844    3.759694   -6.718836
siesta:      7   -2.308448    1.641424    5.047504
siesta:      8   -2.870638    6.543951    0.430777
siesta:      9   -0.251797   -3.474013    6.183271
siesta:     10    2.447404   -2.298694   -5.098710
siesta: ----------------------------------------
siesta:    Tot    0.091248   -0.576447    0.961721

siesta: Stress tensor (static) (eV/Ang**3):
siesta:     0.460368    0.080497    0.044449
siesta:     0.080496    0.298199    0.040852
siesta:     0.044461    0.040849    0.295851

siesta: Cell volume =         92.698812 Ang**3

siesta: Pressure (static):
siesta:                Solid            Molecule  Units
siesta:          -0.00382798         -0.00590682  Ry/Bohr**3
siesta:          -0.35147233         -0.54234432  eV/Ang**3
siesta:        -563.12683764       -868.94079538  kBar
(Free)E+ p_basis*V_orbitals  =       -2944.529769
(Free)Eharris+ p_basis*V_orbitals  =       -2927.841746

* Maximum dynamic memory allocated : Node    0 =     3 MB
* Maximum dynamic memory allocated : Node    1 =     3 MB
* Maximum dynamic memory allocated : Node    2 =     3 MB
* Maximum dynamic memory allocated : Node    3 =     3 MB

* Maximum memory occured during allocate_old_arrays           

timer: CPU execution times:
timer:  Routine       Calls   Time/call    Tot.time        %
timer:  siesta            1       7.726       7.726   100.00
timer:  Setup             1       1.588       1.588    20.55
timer:  bands             1       0.004       0.004     0.05
timer:  writewave         1       0.000       0.000     0.00
timer:  KSV_init          1       0.004       0.004     0.05
timer:  IterMD           10       0.610       6.104    79.01
timer:  hsparse          10       0.022       0.220     2.85
timer:  overlap          10       0.011       0.109     1.41
timer:  IterSCF          10       0.350       3.496    45.26
timer:  kinefsm          20       0.006       0.121     1.57
timer:  nlefsm           20       0.048       0.958    12.40
timer:  DHSCF            20       0.187       3.744    48.47
timer:  DHSCF1           10       0.093       0.932    12.06
timer:  DHSCF2           10       0.095       0.947    12.26
timer:  REORD           180       0.000       0.009     0.12
timer:  POISON           30       0.004       0.115     1.49
timer:  DHSCF3           20       0.040       0.797    10.31
timer:  rhoofd           20       0.019       0.383     4.96
timer:  cellXC           30       0.006       0.188     2.43
timer:  vmat             20       0.010       0.191     2.47
timer:  MolMec           20       0.000       0.000     0.00
timer:  diagon           10       0.011       0.112     1.45
timer:  r-eigvec         10       0.010       0.105     1.36
timer:  r-buildHS        10       0.000       0.000     0.00
timer:  rdiag            10       0.010       0.105     1.36
timer:  rdiag1           10       0.001       0.012     0.16
timer:  rdiag2           10       0.001       0.011     0.14
timer:  rdiag3           10       0.007       0.069     0.89
timer:  rdiag4           10       0.001       0.008     0.10
timer:  r-buildD         10       0.001       0.007     0.09
timer:  DHSCF4           10       0.106       1.064    13.77
timer:  dfscf            10       0.072       0.722     9.34
timer:  overfsm          10       0.003       0.031     0.40
timer:  optical           1       0.027       0.027     0.35
  

elaps: ELAPSED times:
elaps:  Routine       Calls   Time/call    Tot.time        %
elaps:  siesta            1       1.947       1.947    99.95
elaps:  Setup             1       0.399       0.399    20.48
elaps:  bands             1       0.000       0.000     0.00
elaps:  writewave         1       0.000       0.000     0.00
elaps:  KSV_init          1       0.000       0.000     0.00
elaps:  IterMD           10       0.154       1.538    78.95
elaps:  hsparse          10       0.007       0.071     3.64
elaps:  overlap          10       0.003       0.028     1.44
elaps:  IterSCF          10       0.085       0.851    43.69
elaps:  kinefsm          20       0.002       0.036     1.85
elaps:  nlefsm           20       0.014       0.271    13.91
elaps:  DHSCF            20       0.047       0.936    48.05
elaps:  DHSCF1           10       0.023       0.229    11.76
elaps:  DHSCF2           10       0.024       0.241    12.37
elaps:  REORD           180       0.000       0.001     0.05
elaps:  POISON           30       0.001       0.031     1.59
elaps:  DHSCF3           20       0.010       0.200    10.27
elaps:  rhoofd           20       0.005       0.099     5.08
elaps:  cellXC           30       0.002       0.046     2.36
elaps:  vmat             20       0.002       0.050     2.57
elaps:  MolMec           20       0.000       0.000     0.00
elaps:  diagon           10       0.003       0.029     1.49
elaps:  r-eigvec         10       0.003       0.027     1.39
elaps:  r-buildHS        10       0.000       0.000     0.00
elaps:  rdiag            10       0.003       0.027     1.39
elaps:  rdiag1           10       0.000       0.003     0.15
elaps:  rdiag2           10       0.000       0.002     0.10
elaps:  rdiag3           10       0.002       0.019     0.98
elaps:  rdiag4           10       0.000       0.001     0.05
elaps:  r-buildD         10       0.000       0.002     0.10
elaps:  DHSCF4           10       0.026       0.265    13.60
elaps:  dfscf            10       0.018       0.181     9.29
elaps:  overfsm          10       0.001       0.011     0.56
elaps:  optical           1       0.000       0.000     0.00
  
>> End of run:  24-MAR-2013  18:29:25
