Siesta Version  : v4.1-b4-351
Architecture    : x86_64-linux-n-62-26-19
Compiler version: GNU Fortran (GCC) 9.3.0
Compiler flags  : mpifort -m64 -fPIC -O3 -march=native -ftree-vectorize -fexpensive-optimizatioons -funroll-loops -fprefetch-loop-arrays -fno-second-underscore  -flto
PP flags        : -I/dtu/sw/dcc/SL73/2020-aug/generic/build-tools/1.0/include -I/dtu/sw/dcc/SL773/2020-aug/generic/gcc/9.3.0/include -I/dtu/sw/dcc/SL73/2020-aug/generic/gcc/9.3.0/include -I/dtu/sw/dcc/SL73/2020-aug/XeonE5-2660v3/gnu/9.3.0/zlib/1.2.11/include -I/dtu/sw/dcc/SL73/2020-aug/generic/numactl/2.0.12/include -I/dtu/sw/dcc/SL73/2020-aug/XeonE5-2660v3/gnu/9.3.0/libxml2/2.9.10/include -I/dtu/sw/dcc/SL73/2020-aug/XeonE5-2660v3/gnu/9.3.0/hwloc/2.2.0/include -I/dtu/sw/dcc/SL73/2020-aug/XeonE5-2660v3/gnu/9.3.0/knem/1.1.4/include -I/dtu/sw/dcc/SL73/2020-aug/XeonE5-2660v3/gnu/9.3.0/ucx/1.8.1/include -I/dtu/sw/dcc/SL73/2020-aug/XeonE5-2660v3/gnu/9.3.0/openmpi/4.0.4/include -I/dtu/sw/dcc/SL73/2020-aug/XeonE5-2660v3/gnu/9.3.0/szip/2.1.1/include -I/dtu/sw/dcc/SL73/2020-aug/XeonE5-2660v3/gnu/9.3.0/hdf5/1.12.0/include -I/dtu/sw/dcc/SL73/2020-aug/XeonE5-2660v3/gnu/9.3.0/pnetcdf/1.12.1/include -I/dtu/sw/dcc/SL73/2020-aug/generic/gen-zlib/1.2.11/include -I/dtu/sw/dcc/SL73/2020-aug/generic/openssl/1.1.1/include -I/dtu/sw/dcc/SL73/2020-aug/generic/libssh2/1.8.2/include -I/dtu/sw/dcc/SL73/2020-aug/generic/curl/7.65.1/include -I/dtu/sw/dcc/SL73/2020-aug/XeonE5-2660v3/gnu/9.3.0/netcdf/4.7.4/include -I/dtu/sw/dcc/SL73/2020-aug/XeonE5-2660v3/gnu/9.3.0/flook/0.8.1/include -I/dtu/sw/dcc/SL73/2020-aug/XeonE5-2660v3/gnu/9.3.0/fftw/3.3.8/include -I/dtu/sw/dcc/SL73/2020-aug/XeonE5-2660v3/gnu/9.3.0/parmetis/4.0.3/include -I/dtu/sw/dcc/SL73/2020-aug/XeonE5-2660v3/gnu/9.3.0/scalapack/2.1.0/include -I/dtu/sw/dcc/SL73/2020-aug/XeonE5-2660v3/gnu/9.3.0/lapack/3.9.0/include -I/dtu/sw/dcc/SL73/2020-aug/XeonE5-2660v3/gnu/9.3.0/blis/0.7.0/include -I/dtu/sw/dcc/SL73/2020-aug/XeonE5-2660v3/gnu/9.3.0/scotch/6.0.9/include -I/dtu/sw/dcc/SL73/2020-aug/XeonE5-2660v3/gnu/9.3.0/mumps/5.3.3/include -I/dtu/sw/dcc/SL73/2020-aug/XeonE5-2660v3/gnu/9.3.0/elpa/2020.05.001/include -DSIESTA__ELPA -DMPI -DFC_HAVE_FLUSH -DFC_HAVE_ABORT -DCDF -DCDF4 -DSIESTA__FLOOK  -DNCDF -DNCDF_4 -DNCDF_PARALLEL -DTS_NOCHECKS -DSIESTA__METIS -DSIESTA__MUMPS -DSIESTA__MRRR -I/dtu/sw/dcc/SL73/2020-aug/XeonE5-2660v3/gnu/9.3.0/elpa/2020.05.001/include/elpa
Libraries       : libncdf.a libfdict.a -lnetcdff -lnetcdf -lpnetcdf -lhdf5_hl -lhdf5 -lz  -lzmuumps -lmumps_common -lesmumps -lscotch -lscotcherr -lpord -lparmetis -lmetis -lelpa -lscalapack -llapack -lblis  -L/dtu/sw/dcc/SL73/2020-aug/XeonE5-2660v3/gnu/9.3.0/flook/0.8.1/lib -Wl,-rpath=/dtu/sw/dcc/SL73/2020-aug/XeonE5-2660v3/gnu/9.3.0/flook/0.8.1/lib -lflookall -ldl  -flto -fuse-linker-plugin  -lmetis
PARALLEL version
NetCDF support
NetCDF-4 support
NetCDF-4 MPI-IO support
METIS ordering support
Lua support

* Running on 8 nodes in parallel
>> Start of run:  22-JAN-2021  23:13:09

                           ***********************       
                           *  WELCOME TO SIESTA  *       
                           ***********************       

reinit: Reading from ../md_pr.fdf

reinit: -----------------------------------------------------------------------
reinit: System Name: MgCo3 R-3c -- SZ, 50 R -- PR at 10 Gpa
reinit: -----------------------------------------------------------------------
reinit: System Label: md_pr
reinit: -----------------------------------------------------------------------

initatom: Reading input for the pseudopotentials and atomic orbitals ----------
Species number:   1 Atomic number:   12 Label: Mg
Species number:   2 Atomic number:    6 Label: C
Species number:   3 Atomic number:    8 Label: O

Ground state valence configuration:   3s02
Reading pseudopotential information in formatted form from Mg.psf

Valence configuration for pseudopotential generation:
3s( 2.00) rc: 2.59
3p( 0.00) rc: 2.59
3d( 0.00) rc: 2.59
4f( 0.00) rc: 2.59
Ground state valence configuration:   2s02  2p02
Reading pseudopotential information in formatted form from C.psf

Valence configuration for pseudopotential generation:
2s( 2.00) rc: 1.49
2p( 2.00) rc: 1.52
3d( 0.00) rc: 1.58
Ground state valence configuration:   2s02  2p04
Reading pseudopotential information in formatted form from O.psf

Valence configuration for pseudopotential generation:
2s( 2.00) rc: 1.14
2p( 4.00) rc: 1.14
3d( 0.00) rc: 1.14
4f( 0.00) rc: 1.14
For Mg, standard SIESTA heuristics set lmxkb to 1
 (one more than the basis l, including polarization orbitals).
Use PS.lmax or PS.KBprojectors blocks to override.
For C, standard SIESTA heuristics set lmxkb to 2
 (one more than the basis l, including polarization orbitals).
Use PS.lmax or PS.KBprojectors blocks to override.
For O, standard SIESTA heuristics set lmxkb to 2
 (one more than the basis l, including polarization orbitals).
Use PS.lmax or PS.KBprojectors blocks to override.

<basis_specs>
===============================================================================
Mg                   Z=  12    Mass=  24.310        Charge= 0.17977+309
Lmxo=0 Lmxkb= 1    BasisType=split      Semic=F
L=0  Nsemic=0  Cnfigmx=3
          i=1  nzeta=1  polorb=0  (3s)
            splnorm:   0.15000    
               vcte:    0.0000    
               rinn:    0.0000    
               qcoe:    0.0000    
               qyuk:    0.0000    
               qwid:   0.10000E-01
                rcs:    0.0000    
            lambdas:    1.0000    
-------------------------------------------------------------------------------
L=0  Nkbl=1  erefs: 0.17977+309
L=1  Nkbl=1  erefs: 0.17977+309
===============================================================================
</basis_specs>

atom: Called for Mg                    (Z =  12)

read_vps: Pseudopotential generation method:
read_vps: ATM3      Troullier-Martins                       
Valence charge for ps generation:    2.00000

xc_check: Exchange-correlation functional:
xc_check: Ceperley-Alder
V l=0 = -2*Zval/r beyond r=  3.5878
V l=1 = -2*Zval/r beyond r=  3.5878
All V_l potentials equal beyond r=  2.5600
This should be close to max(r_c) in ps generation
All pots = -2*Zval/r beyond r=  3.5878
Using large-core scheme for Vlocal

atom: Estimated core radius    3.58779

atom: Including non-local core corrections could be a good idea
atom: Maximum radius for 4*pi*r*r*local-pseudopot. charge    3.91588
atom: Maximum radius for r*vlocal+2*Zval:    3.63292
GHOST: No ghost state for L =  0
GHOST: No ghost state for L =  1

KBgen: Kleinman-Bylander projectors: 
   l= 0   rc=  2.657845   el= -0.351328   Ekb=  2.184400   kbcos=  0.257081
   l= 1   rc=  2.657845   el= -0.101748   Ekb=  0.525536   kbcos=  0.270508

KBgen: Total number of  Kleinman-Bylander projectors:    4
atom: -------------------------------------------------------------------------

atom: SANKEY-TYPE ORBITALS:

SPLIT: Orbitals with angular momentum L= 0

SPLIT: Basis orbitals for state 3s

SPLIT: PAO cut-off radius determined from an
SPLIT: energy shift=  0.020000 Ry

   izeta = 1
                 lambda =    1.000000
                     rc =    6.619780
                 energy =   -0.332103
                kinetic =    0.289627
    potential(screened) =   -0.621729
       potential(ionic) =   -1.387191
atom: Total number of Sankey-type orbitals:  1

atm_pop: Valence configuration (for local Pseudopot. screening):
 3s( 2.00)                                                            
Vna: chval, zval:    2.00000   2.00000

Vna:  Cut-off radius for the neutral-atom potential:   6.619780

atom: _________________________________________________________________________

<basis_specs>
===============================================================================
C                    Z=   6    Mass=  12.010        Charge= 0.17977+309
Lmxo=1 Lmxkb= 2    BasisType=split      Semic=F
L=0  Nsemic=0  Cnfigmx=2
          i=1  nzeta=1  polorb=0  (2s)
            splnorm:   0.15000    
               vcte:    0.0000    
               rinn:    0.0000    
               qcoe:    0.0000    
               qyuk:    0.0000    
               qwid:   0.10000E-01
                rcs:    0.0000    
            lambdas:    1.0000    
L=1  Nsemic=0  Cnfigmx=2
          i=1  nzeta=1  polorb=0  (2p)
            splnorm:   0.15000    
               vcte:    0.0000    
               rinn:    0.0000    
               qcoe:    0.0000    
               qyuk:    0.0000    
               qwid:   0.10000E-01
                rcs:    0.0000    
            lambdas:    1.0000    
-------------------------------------------------------------------------------
L=0  Nkbl=1  erefs: 0.17977+309
L=1  Nkbl=1  erefs: 0.17977+309
L=2  Nkbl=1  erefs: 0.17977+309
===============================================================================
</basis_specs>

atom: Called for C                     (Z =   6)

read_vps: Pseudopotential generation method:
read_vps: ATM3      Troullier-Martins                       
Valence charge for ps generation:    4.00000

xc_check: Exchange-correlation functional:
xc_check: Ceperley-Alder
V l=0 = -2*Zval/r beyond r=  1.4666
V l=1 = -2*Zval/r beyond r=  1.5038
V l=2 = -2*Zval/r beyond r=  1.5612
All V_l potentials equal beyond r=  1.5612
This should be close to max(r_c) in ps generation
All pots = -2*Zval/r beyond r=  1.5612

VLOCAL1: 99.0% of the norm of Vloc inside     17.809 Ry
VLOCAL1: 99.9% of the norm of Vloc inside     40.586 Ry
atom: Maximum radius for 4*pi*r*r*local-pseudopot. charge    1.88329
atom: Maximum radius for r*vlocal+2*Zval:    1.62091
GHOST: No ghost state for L =  0
GHOST: No ghost state for L =  1
GHOST: No ghost state for L =  2

KBgen: Kleinman-Bylander projectors: 
   l= 0   rc=  1.747182   el= -1.001947   Ekb=  5.181700   kbcos=  0.300603
   l= 1   rc=  1.747182   el= -0.398598   Ekb= -4.328763   kbcos= -0.367074
   l= 2   rc=  1.955272   el=  0.002326   Ekb= -1.016175   kbcos= -0.009979

KBgen: Total number of  Kleinman-Bylander projectors:    9
atom: -------------------------------------------------------------------------

atom: SANKEY-TYPE ORBITALS:

SPLIT: Orbitals with angular momentum L= 0

SPLIT: Basis orbitals for state 2s

SPLIT: PAO cut-off radius determined from an
SPLIT: energy shift=  0.020000 Ry

   izeta = 1
                 lambda =    1.000000
                     rc =    4.191849
                 energy =   -0.983897
                kinetic =    0.886956
    potential(screened) =   -1.870853
       potential(ionic) =   -5.479661

SPLIT: Orbitals with angular momentum L= 1

SPLIT: Basis orbitals for state 2p

SPLIT: PAO cut-off radius determined from an
SPLIT: energy shift=  0.020000 Ry

   izeta = 1
                 lambda =    1.000000
                     rc =    4.870301
                 energy =   -0.379093
                kinetic =    2.545357
    potential(screened) =   -2.924450
       potential(ionic) =   -6.433151
atom: Total number of Sankey-type orbitals:  4

atm_pop: Valence configuration (for local Pseudopot. screening):
 2s( 2.00)                                                            
 2p( 2.00)                                                            
Vna: chval, zval:    4.00000   4.00000

Vna:  Cut-off radius for the neutral-atom potential:   4.870301

atom: _________________________________________________________________________

<basis_specs>
===============================================================================
O                    Z=   8    Mass=  16.000        Charge= 0.17977+309
Lmxo=1 Lmxkb= 2    BasisType=split      Semic=F
L=0  Nsemic=0  Cnfigmx=2
          i=1  nzeta=1  polorb=0  (2s)
            splnorm:   0.15000    
               vcte:    0.0000    
               rinn:    0.0000    
               qcoe:    0.0000    
               qyuk:    0.0000    
               qwid:   0.10000E-01
                rcs:    0.0000    
            lambdas:    1.0000    
L=1  Nsemic=0  Cnfigmx=2
          i=1  nzeta=1  polorb=0  (2p)
            splnorm:   0.15000    
               vcte:    0.0000    
               rinn:    0.0000    
               qcoe:    0.0000    
               qyuk:    0.0000    
               qwid:   0.10000E-01
                rcs:    0.0000    
            lambdas:    1.0000    
-------------------------------------------------------------------------------
L=0  Nkbl=1  erefs: 0.17977+309
L=1  Nkbl=1  erefs: 0.17977+309
L=2  Nkbl=1  erefs: 0.17977+309
===============================================================================
</basis_specs>

atom: Called for O                     (Z =   8)

read_vps: Pseudopotential generation method:
read_vps: ATM3      Troullier-Martins                       
Valence charge for ps generation:    6.00000

xc_check: Exchange-correlation functional:
xc_check: Ceperley-Alder
V l=0 = -2*Zval/r beyond r=  1.1278
V l=1 = -2*Zval/r beyond r=  1.1278
V l=2 = -2*Zval/r beyond r=  1.1278
All V_l potentials equal beyond r=  1.1278
This should be close to max(r_c) in ps generation
All pots = -2*Zval/r beyond r=  1.1278

VLOCAL1: 99.0% of the norm of Vloc inside     34.126 Ry
VLOCAL1: 99.9% of the norm of Vloc inside     77.774 Ry
atom: Maximum radius for 4*pi*r*r*local-pseudopot. charge    1.37759
atom: Maximum radius for r*vlocal+2*Zval:    1.18566
GHOST: No ghost state for L =  0
GHOST: No ghost state for L =  1
GHOST: No ghost state for L =  2

KBgen: Kleinman-Bylander projectors: 
   l= 0   rc=  1.294105   el= -1.742414   Ekb=  9.135903   kbcos=  0.326910
   l= 1   rc=  1.294105   el= -0.676589   Ekb= -8.124878   kbcos= -0.395047
   l= 2   rc=  1.448233   el=  0.002386   Ekb= -2.039267   kbcos= -0.003484

KBgen: Total number of  Kleinman-Bylander projectors:    9
atom: -------------------------------------------------------------------------

atom: SANKEY-TYPE ORBITALS:

SPLIT: Orbitals with angular momentum L= 0

SPLIT: Basis orbitals for state 2s

SPLIT: PAO cut-off radius determined from an
SPLIT: energy shift=  0.020000 Ry

   izeta = 1
                 lambda =    1.000000
                     rc =    3.305093
                 energy =   -1.723766
                kinetic =    1.614911
    potential(screened) =   -3.338677
       potential(ionic) =  -11.304675

SPLIT: Orbitals with angular momentum L= 1

SPLIT: Basis orbitals for state 2p

SPLIT: PAO cut-off radius determined from an
SPLIT: energy shift=  0.020000 Ry

   izeta = 1
                 lambda =    1.000000
                     rc =    3.937239
                 energy =   -0.658841
                kinetic =    5.005986
    potential(screened) =   -5.664827
       potential(ionic) =  -13.452360
atom: Total number of Sankey-type orbitals:  4

atm_pop: Valence configuration (for local Pseudopot. screening):
 2s( 2.00)                                                            
 2p( 4.00)                                                            
Vna: chval, zval:    6.00000   6.00000

Vna:  Cut-off radius for the neutral-atom potential:   3.937239

atom: _________________________________________________________________________

prinput: Basis input ----------------------------------------------------------

PAO.BasisType split     

%block ChemicalSpeciesLabel
    1   12 Mg                      # Species index, atomic number, species label
    2    6 C                       # Species index, atomic number, species label
    3    8 O                       # Species index, atomic number, species label
%endblock ChemicalSpeciesLabel

%block PAO.Basis                 # Define Basis set
Mg                    1                    # Species label, number of l-shells
 n=3   0   1                         # n, l, Nzeta 
   6.620   
   1.000   
C                     2                    # Species label, number of l-shells
 n=2   0   1                         # n, l, Nzeta 
   4.192   
   1.000   
 n=2   1   1                         # n, l, Nzeta 
   4.870   
   1.000   
O                     2                    # Species label, number of l-shells
 n=2   0   1                         # n, l, Nzeta 
   3.305   
   1.000   
 n=2   1   1                         # n, l, Nzeta 
   3.937   
   1.000   
%endblock PAO.Basis

prinput: ----------------------------------------------------------------------

Dumping basis to NetCDF file Mg.ion.nc
Dumping basis to NetCDF file C.ion.nc
Dumping basis to NetCDF file O.ion.nc
coor:   Atomic-coordinates input format  =     Fractional

siesta: WARNING: XV file not found

siesta: Atomic coordinates (Bohr) and species
siesta:      0.00000   0.00000   0.00000  1        1
siesta:     12.51930   5.59740   3.66414  1        2
siesta:      6.25965   2.79870   1.83207  2        3
siesta:     -6.25965  -2.79870  -1.83207  2        4
siesta:      7.25136   0.58061   1.83207  3        5
siesta:      6.25965   4.12944  -0.20079  3        6
siesta:      5.26794   3.68605   3.86493  3        7
siesta:     -7.25136  -0.58061  -1.83207  3        8
siesta:     -6.25965  -4.12944   0.20079  3        9
siesta:     -5.26794  -3.68605  -3.86493  3       10

siesta: System type = bulk      

initatomlists: Number of atoms, orbitals, and projectors:     10    34    80

siesta: ******************** Simulation parameters ****************************
siesta:
siesta: The following are some of the parameters of the simulation.
siesta: A complete list of the parameters used, including default values,
siesta: can be found in file out.fdf
siesta:
redata: Spin configuration                          = none
redata: Number of spin components                   = 1
redata: Time-Reversal Symmetry                      = T
redata: Spin spiral                                 = F
redata: Long output                                 =   F
redata: Number of Atomic Species                    =        3
redata: Charge density info will appear in .RHO file
redata: Write Mulliken Pop.                         = NO
redata: Matel table size (NRTAB)                    =     1024
redata: Mesh Cutoff                                 =    50.0000 Ry
redata: Net charge of the system                    =     0.0000 |e|
redata: Min. number of SCF Iter                     =        0
redata: Max. number of SCF Iter                     =     1000
redata: SCF convergence failure will abort job
redata: SCF mix quantity                            = Hamiltonian
redata: Mix DM or H after convergence               =   F
redata: Recompute H after scf cycle                 =   F
redata: Mix DM in first SCF step                    =   T
redata: Write Pulay info on disk                    =   F
redata: New DM Occupancy tolerance                  = 0.000000000001
redata: No kicks to SCF
redata: DM Mixing Weight for Kicks                  =     0.5000
redata: Require Harris convergence for SCF          =   F
redata: Harris energy tolerance for SCF             =     0.000100 eV
redata: Require DM convergence for SCF              =   T
redata: DM tolerance for SCF                        =     0.001000
redata: Require EDM convergence for SCF             =   F
redata: EDM tolerance for SCF                       =     0.001000 eV
redata: Require H convergence for SCF               =   T
redata: Hamiltonian tolerance for SCF               =     0.001000 eV
redata: Require (free) Energy convergence for SCF   =   F
redata: (free) Energy tolerance for SCF             =     0.000100 eV
redata: Using Saved Data (generic)                  =   F
redata: Use continuation files for DM               =   T
redata: Neglect nonoverlap interactions             =   F
redata: Method of Calculation                       = Diagonalization
redata: Electronic Temperature                      =   299.9869 K
redata: Fix the spin of the system                  =   F
redata: Dynamics option                             = Parrinello-Rahman MD run
redata: Initial MD time step                        =        1
redata:   Final MD time step                        =       50
redata: Length of MD time step                      =     0.3000 fs
redata: Initial Temperature of MD run               =     0.0000 K
redata: Perform a MD quench                         =   F
redata: Parrinello-Rahman mass                      =  1360.5800 eV/fs**2
redata: Target Pressure                             =     0.0624 eV/Ang**3
mix.SCF: Broyden mixing                          = Broyden
mix.SCF:    History steps                        = 4
mix.SCF:    Linear mixing weight                 =     0.100000
mix.SCF:    Inverse Jacobian weight              =     0.100000
mix.SCF:    Weight prime                         =     0.100000
mix.SCF:    SVD condition                        = 0.1000E-07
redata: Save all siesta data in one NC              =   F
redata: ***********************************************************************

%block SCF.Mixers
  Broyden
%endblock SCF.Mixers

%block SCF.Mixer.Broyden
  # Mixing method
  method broyden

  # Mixing options
  weight 0.1000
  weight.linear 0.1000
  weight.prime 0.1000
  history 4
%endblock SCF.Mixer.Broyden

Size of DM history Fstack: 1
Total number of electrons:    48.000000
Total ionic charge:    48.000000

* ProcessorY, Blocksize:    2   4


* Orbital distribution balance (max,min):     6     4

 Kpoints in:            1 . Kpoints trimmed:            1

siesta: k-grid: Number of k-points =     1
siesta: k-grid: Cutoff (effective) =     2.317 Ang
siesta: k-grid: Supercell and displacements
siesta: k-grid:    1   0   0      0.000
siesta: k-grid:    0   1   0      0.000
siesta: k-grid:    0   0   1      0.000

diag: Algorithm                                     = Expert
diag: Parallel over k                               =   F
diag: Use parallel 2D distribution                  =   T
diag: Parallel block-size                           = 4
diag: Parallel distribution                         =     2 x     4
diag: Used triangular part                          = Lower
diag: Absolute tolerance                            =  0.100E-15
diag: Orthogonalization factor                      =  0.100E-05
diag: Memory factor                                 =  1.0000


ts: **************************************************************
ts: Save H and S matrices                           =    F
ts: Save DM and EDM matrices                        =    F
ts: Only save the overlap matrix S                  =    F
ts: **************************************************************

************************ Begin: TS CHECKS AND WARNINGS ************************
************************ End: TS CHECKS AND WARNINGS **************************


                     ====================================
                        Begin MD step =      1
                     ====================================

outcoor: Atomic coordinates (fractional):                   
    0.00000000    0.00000000    0.00000000   1       1  Mg
    0.50000000    0.50000000    0.50000000   1       2  Mg
    0.25000000    0.25000000    0.25000000   2       3  C
   -0.25000000   -0.25000000   -0.25000000   2       4  C
    0.52740000   -0.02740000    0.25000000   3       5  O
    0.25000000    0.52740000   -0.02740000   3       6  O
   -0.02740000    0.25000000    0.52740000   3       7  O
   -0.52740000    0.02740000   -0.25000000   3       8  O
   -0.25000000   -0.52740000    0.02740000   3       9  O
    0.02740000   -0.25000000   -0.52740000   3      10  O

outcell: Unit cell vectors (Ang):
        5.677830    0.000000    0.000000
        3.786009    4.231299    0.000000
        3.786009    1.692731    3.877957

outcell: Cell vector modules (Ang)   :    5.677830    5.677830    5.677830
outcell: Cell angles (23,13,12) (deg):     48.1790     48.1790     48.1790
outcell: Cell volume (Ang**3)        :     93.1663
Gamma-point calculation with interaction between periodic images
Some features might not work optimally:
e.g. DM initialization from atomic data
<dSpData1D:S at geom step 1
  <sparsity:sparsity for geom step 1
    nrows_g=34 nrows=6 sparsity=.1765 nnzs=204, refcount: 7>
  <dData1D:(new from dSpData1D) n=204, refcount: 1>
refcount: 1>
new_DM -- step:     1
Initializing Density Matrix...

Attempting to read DM from file... Failed...
DM filled with atomic data:
<dSpData2D:DM initialized from atoms
  <sparsity:sparsity for geom step 1
    nrows_g=34 nrows=6 sparsity=.1765 nnzs=204, refcount: 8>
  <dData2D:DM n=204 m=1, refcount: 1>
refcount: 1>
No. of atoms with KB's overlaping orbs in proc 0. Max # of overlaps:      10      85
New grid distribution:   1
           1       1:   12    1:    6    1:    3
           2       1:   12    1:    6    4:    6
           3       1:   12    1:    6    7:    9
           4       1:   12    1:    6   10:   12
           5       1:   12    7:   12    1:    3
           6       1:   12    7:   12    4:    6
           7       1:   12    7:   12    7:    9
           8       1:   12    7:   12   10:   12

InitMesh: MESH =    24 x    24 x    24 =       13824
InitMesh: (bp) =    12 x    12 x    12 =        1728
InitMesh: Mesh cutoff (required, used) =    50.000    63.482 Ry
ExtMesh (bp) on 0 =    56 x    50 x    47 =      131600
New grid distribution:   2
           1       6:   12    1:    6    1:    6
           2       7:   12    7:   12    1:    6
           3       1:    6    1:    6    7:   12
           4       1:    5    1:    6    1:    6
           5       7:   12    1:    6    7:   12
           6       1:    6    7:   12    1:    6
           7       1:    7    7:   12    7:   12
           8       8:   12    7:   12    7:   12
New grid distribution:   3
           1       1:    6    7:   12    7:   12
           2       7:   12    1:    6    1:    6
           3       7:   12    1:    6    7:   12
           4       7:   12    7:   12    1:    6
           5       1:    6    1:    6    7:   12
           6       1:    6    1:    6    1:    6
           7       7:   12    7:   12    7:   12
           8       1:    6    7:   12    1:    6
Setting up quadratic distribution...
ExtMesh (bp) on 0 =    51 x    50 x    50 =      127500
PhiOnMesh: Number of (b)points on node 0 =                  252
PhiOnMesh: nlist on node 0 =                 5554

stepf: Fermi-Dirac step function

siesta: Program's energy decomposition (eV):
siesta: Ebs     =      -542.399397
siesta: Eions   =      5228.674091
siesta: Ena     =      1092.439512
siesta: Ekin    =      2393.802827
siesta: Enl     =      -404.358864
siesta: Eso     =         0.000000
siesta: Edftu   =         0.000000
siesta: DEna    =       -99.866203
siesta: DUscf   =        23.559788
siesta: DUext   =         0.000000
siesta: Exc     =      -723.050366
siesta: eta*DQ  =         0.000000
siesta: Emadel  =         0.000000
siesta: Emeta   =         0.000000
siesta: Emolmec =         0.000000
siesta: Ekinion =         0.000000
siesta: Eharris =     -2888.050679
siesta: Etot    =     -2946.147398
siesta: FreeEng =     -2946.147398

        iscf     Eharris(eV)        E_KS(eV)     FreeEng(eV)     dDmax    Ef(eV) dHmax(eV)
   scf:    1    -2888.050679    -2946.147398    -2946.147398  1.597343 -2.623933  5.315954
timer: Routine,Calls,Time,% = IterSCF        1       0.014   2.66
   scf:    2    -2952.964851    -2949.670748    -2949.670748  0.075271 -2.763888  4.090410
   scf:    3    -2957.093167    -2955.358642    -2955.358642  0.356419 -3.262770  0.919121
   scf:    4    -2955.436843    -2955.399260    -2955.399260  0.010383 -3.231926  0.749727
   scf:    5    -2955.535915    -2955.488539    -2955.488539  0.034117 -2.957410  0.122561
   scf:    6    -2955.490682    -2955.490459    -2955.490459  0.007746 -2.982600  0.025644
   scf:    7    -2955.490742    -2955.490605    -2955.490605  0.000614 -2.991813  0.014766
   scf:    8    -2955.490748    -2955.490687    -2955.490687  0.000914 -3.003625  0.001027
   scf:    9    -2955.490687    -2955.490687    -2955.490687  0.000029 -3.003942  0.000679

SCF Convergence by DM+H criterion
max |DM_out - DM_in|         :     0.0000285196
max |H_out - H_in|      (eV) :     0.0006791157
SCF cycle converged after 9 iterations

Using DM_out to compute the final energy and forces
No. of atoms with KB's overlaping orbs in proc 0. Max # of overlaps:      10      85

siesta: E_KS(eV) =            -2955.4907

siesta: E_KS - E_eggbox =     -2955.4907

siesta: Atomic forces (eV/Ang):
     1   -0.000000   -0.000000    0.000000
     2   -0.000000    0.000000    0.000000
     3    0.000002   -0.000012    0.000008
     4   -0.000002    0.000012   -0.000008
     5    3.359416   -7.513760   -0.000001
     6   -0.000000    4.507889   -6.886323
     7   -3.359419    3.005884    6.886315
     8   -3.359416    7.513760    0.000001
     9    0.000000   -4.507889    6.886323
    10    3.359419   -3.005884   -6.886315
----------------------------------------
   Tot    0.000000    0.000000   -0.000000
----------------------------------------
   Max    7.513760
   Res    3.680825    sqrt( Sum f_i^2 / 3N )
----------------------------------------
   Max    7.513760    constrained

Stress tensor Voigt[x,y,z,yz,xz,xy] (kbar):      164.11     -273.58     -336.08       71.59      160.11      244.59
(Free)E + p*V (eV/cell)    -2946.8546
Target enthalpy (eV/cell)    -2949.6758

siesta: Stress tensor (static) (eV/Ang**3):
         0.102430    0.152658    0.099932
         0.152658   -0.170755    0.044680
         0.099932    0.044680   -0.209760

siesta: Pressure (static):        148.51537396  kBar

siesta: Stress tensor (total) (eV/Ang**3):
         0.102430    0.152658    0.099932
         0.152658   -0.170755    0.044680
         0.099932    0.044680   -0.209760

siesta: Pressure (total):        148.51537396  kBar

siesta: E_kin PR =       1.568 K

siesta: Temp_ion =       0.000 K

                     ====================================
                        Begin MD step =      2
                     ====================================

outcoor: Atomic coordinates (fractional):                   
    0.00000000   -0.00000000    0.00000000   1       1  Mg
    0.50000000    0.50000000    0.50000000   1       2  Mg
    0.25000000    0.25000000    0.25000000   2       3  C
   -0.25000000   -0.25000000   -0.25000000   2       4  C
    0.52744784   -0.02744784    0.25000000   3       5  O
    0.25000000    0.52744784   -0.02744784   3       6  O
   -0.02744784    0.25000000    0.52744784   3       7  O
   -0.52744784    0.02744784   -0.25000000   3       8  O
   -0.25000000   -0.52744784    0.02744784   3       9  O
    0.02744784   -0.25000000   -0.52744784   3      10  O

outcell: Unit cell vectors (Ang):
        5.677839   -0.000068   -0.000044
        3.785965    4.231351   -0.000044
        3.785965    1.692711    3.878022

outcell: Cell vector modules (Ang)   :    5.677839    5.677839    5.677839
outcell: Cell angles (23,13,12) (deg):     48.1804     48.1804     48.1804
outcell: Cell volume (Ang**3)        :     93.1711
Gamma-point calculation with interaction between periodic images
Some features might not work optimally:
e.g. DM initialization from atomic data
<dSpData1D:S at geom step 2
  <sparsity:sparsity for geom step 2
    nrows_g=34 nrows=6 sparsity=.1765 nnzs=204, refcount: 7>
  <dData1D:(new from dSpData1D) n=204, refcount: 1>
refcount: 1>
new_DM -- step:     2
Re-using DM from previous geometries...
Number of DMs in history: 1
 DM extrapolation coefficients: 
1   1.00000
New DM after history re-use:
<dSpData2D:SpM extrapolated using coords
  <sparsity:sparsity for geom step 2
    nrows_g=34 nrows=6 sparsity=.1765 nnzs=204, refcount: 9>
  <dData2D:(temp array for extrapolation) n=204 m=1, refcount: 1>
refcount: 1>
No. of atoms with KB's overlaping orbs in proc 0. Max # of overlaps:      10      85
New grid distribution:   1
           1       1:   12    1:    6    1:    3
           2       1:   12    1:    6    4:    6
           3       1:   12    1:    6    7:    9
           4       1:   12    1:    6   10:   12
           5       1:   12    7:   12    1:    3
           6       1:   12    7:   12    4:    6
           7       1:   12    7:   12    7:    9
           8       1:   12    7:   12   10:   12

InitMesh: MESH =    24 x    24 x    24 =       13824
InitMesh: (bp) =    12 x    12 x    12 =        1728
InitMesh: Mesh cutoff (required, used) =    50.000    63.483 Ry
ExtMesh (bp) on 0 =    56 x    50 x    47 =      131600
New grid distribution:   2
           1       6:   12    1:    6    1:    6
           2       7:   12    7:   12    1:    6
           3       1:    6    1:    6    7:   12
           4       1:    5    1:    6    1:    6
           5       7:   12    1:    6    7:   12
           6       1:    6    7:   12    1:    6
           7       1:    7    7:   12    7:   12
           8       8:   12    7:   12    7:   12
New grid distribution:   3
           1       1:    6    7:   12    7:   12
           2       7:   12    1:    6    1:    6
           3       7:   12    1:    6    7:   12
           4       7:   12    7:   12    1:    6
           5       1:    6    1:    6    7:   12
           6       1:    6    1:    6    1:    6
           7       7:   12    7:   12    7:   12
           8       1:    6    7:   12    1:    6
Setting up quadratic distribution...
ExtMesh (bp) on 0 =    51 x    50 x    50 =      127500
PhiOnMesh: Number of (b)points on node 0 =                  252
PhiOnMesh: nlist on node 0 =                 5552

        iscf     Eharris(eV)        E_KS(eV)     FreeEng(eV)     dDmax    Ef(eV) dHmax(eV)
   scf:    1    -2955.524316    -2955.503006    -2955.503006  0.000538 -3.010148  0.004048
   scf:    2    -2955.502993    -2955.503004    -2955.503004  0.000554 -3.008309  0.004804
   scf:    3    -2955.503011    -2955.503009    -2955.503009  0.000286 -3.009226  0.000386

SCF Convergence by DM+H criterion
max |DM_out - DM_in|         :     0.0002855173
max |H_out - H_in|      (eV) :     0.0003860284
SCF cycle converged after 3 iterations

Using DM_out to compute the final energy and forces
No. of atoms with KB's overlaping orbs in proc 0. Max # of overlaps:      10      85

siesta: E_KS(eV) =            -2955.5030

siesta: Atomic forces (eV/Ang):
     1   -0.000000   -0.000000    0.000000
     2   -0.000000    0.000000    0.000000
     3    0.000004   -0.000017    0.000011
     4   -0.000004    0.000017   -0.000011
     5    3.352287   -7.497813   -0.000002
     6   -0.000001    4.498326   -6.871712
     7   -3.352291    2.999507    6.871701
     8   -3.352287    7.497813    0.000002
     9    0.000001   -4.498326    6.871712
    10    3.352291   -2.999507   -6.871701
----------------------------------------
   Tot    0.000000    0.000000   -0.000000
----------------------------------------
   Max    7.497813
   Res    3.673015    sqrt( Sum f_i^2 / 3N )
----------------------------------------
   Max    7.497813    constrained

Stress tensor Voigt[x,y,z,yz,xz,xy] (kbar):      163.24     -275.62     -338.28       71.78      160.54      245.24
(Free)E + p*V (eV/cell)    -2946.7674
Target enthalpy (eV/cell)    -2949.6878

siesta: Stress tensor (static) (eV/Ang**3):
         0.101887    0.153064    0.100198
         0.153064   -0.172026    0.044799
         0.100198    0.044799   -0.211136

siesta: Pressure (static):        150.21920369  kBar

siesta: Stress tensor (total) (eV/Ang**3):
         0.101887    0.153064    0.100198
         0.153064   -0.172026    0.044799
         0.100198    0.044799   -0.211136

siesta: Pressure (total):        150.21920369  kBar

siesta: E_kin PR =      14.180 K

siesta: Temp_ion =       9.393 K

                     ====================================
                        Begin MD step =      3
                     ====================================

outcoor: Atomic coordinates (fractional):                   
    0.00000000   -0.00000000    0.00000000   1       1  Mg
    0.50000000    0.50000000    0.50000000   1       2  Mg
    0.25000000    0.25000000    0.25000000   2       3  C
   -0.25000000   -0.25000000   -0.25000000   2       4  C
    0.52759115   -0.02759115    0.25000000   3       5  O
    0.25000000    0.52759115   -0.02759115   3       6  O
   -0.02759115    0.25000000    0.52759115   3       7  O
   -0.52759115    0.02759115   -0.25000000   3       8  O
   -0.25000000   -0.52759115    0.02759115   3       9  O
    0.02759115   -0.25000000   -0.52759115   3      10  O

outcell: Unit cell vectors (Ang):
        5.677858   -0.000204   -0.000134
        3.785876    4.231456   -0.000134
        3.785876    1.692671    3.878154

outcell: Cell vector modules (Ang)   :    5.677858    5.677858    5.677858
outcell: Cell angles (23,13,12) (deg):     48.1831     48.1831     48.1831
outcell: Cell volume (Ang**3)        :     93.1806
Gamma-point calculation with interaction between periodic images
Some features might not work optimally:
e.g. DM initialization from atomic data
<dSpData1D:S at geom step 3
  <sparsity:sparsity for geom step 3
    nrows_g=34 nrows=6 sparsity=.1765 nnzs=204, refcount: 7>
  <dData1D:(new from dSpData1D) n=204, refcount: 1>
refcount: 1>
new_DM -- step:     3
Re-using DM from previous geometries...
Number of DMs in history: 1
 DM extrapolation coefficients: 
1   1.00000
New DM after history re-use:
<dSpData2D:SpM extrapolated using coords
  <sparsity:sparsity for geom step 3
    nrows_g=34 nrows=6 sparsity=.1765 nnzs=204, refcount: 9>
  <dData2D:(temp array for extrapolation) n=204 m=1, refcount: 1>
refcount: 1>
No. of atoms with KB's overlaping orbs in proc 0. Max # of overlaps:      10      85
New grid distribution:   1
           1       1:   12    1:    6    1:    3
           2       1:   12    1:    6    4:    6
           3       1:   12    1:    6    7:    9
           4       1:   12    1:    6   10:   12
           5       1:   12    7:   12    1:    3
           6       1:   12    7:   12    4:    6
           7       1:   12    7:   12    7:    9
           8       1:   12    7:   12   10:   12

InitMesh: MESH =    24 x    24 x    24 =       13824
InitMesh: (bp) =    12 x    12 x    12 =        1728
InitMesh: Mesh cutoff (required, used) =    50.000    63.485 Ry
ExtMesh (bp) on 0 =    56 x    50 x    47 =      131600
New grid distribution:   2
           1       6:   12    1:    6    1:    6
           2       7:   12    7:   12    1:    6
           3       1:    6    1:    6    7:   12
           4       1:    5    1:    6    1:    6
           5       7:   12    1:    6    7:   12
           6       1:    6    7:   12    1:    6
           7       1:    7    7:   12    7:   12
           8       8:   12    7:   12    7:   12
New grid distribution:   3
           1       1:    6    7:   12    7:   12
           2       7:   12    1:    6    1:    6
           3       7:   12    1:    6    7:   12
           4       7:   12    7:   12    1:    6
           5       1:    6    1:    6    7:   12
           6       1:    6    1:    6    1:    6
           7       7:   12    7:   12    7:   12
           8       1:    6    7:   12    1:    6
Setting up quadratic distribution...
ExtMesh (bp) on 0 =    51 x    50 x    50 =      127500
PhiOnMesh: Number of (b)points on node 0 =                  252
PhiOnMesh: nlist on node 0 =                 5564

        iscf     Eharris(eV)        E_KS(eV)     FreeEng(eV)     dDmax    Ef(eV) dHmax(eV)
   scf:    1    -2955.598382    -2955.538394    -2955.538394  0.001751 -3.026386  0.012914
   scf:    2    -2955.538275    -2955.538375    -2955.538375  0.001697 -3.020105  0.014856
   scf:    3    -2955.538444    -2955.538421    -2955.538421  0.000912 -3.023357  0.001097
   scf:    4    -2955.538421    -2955.538421    -2955.538421  0.000013 -3.023291  0.000909

SCF Convergence by DM+H criterion
max |DM_out - DM_in|         :     0.0000127428
max |H_out - H_in|      (eV) :     0.0009085624
SCF cycle converged after 4 iterations

Using DM_out to compute the final energy and forces
No. of atoms with KB's overlaping orbs in proc 0. Max # of overlaps:      10      85

siesta: E_KS(eV) =            -2955.5384

siesta: Atomic forces (eV/Ang):
     1   -0.000000   -0.000000    0.000000
     2   -0.000000    0.000000    0.000000
     3    0.000003   -0.000011    0.000008
     4   -0.000003    0.000011   -0.000008
     5    3.334074   -7.457080   -0.000001
     6   -0.000001    4.473885   -6.834375
     7   -3.334078    2.983211    6.834367
     8   -3.334074    7.457080    0.000001
     9    0.000001   -4.473885    6.834375
    10    3.334078   -2.983211   -6.834367
----------------------------------------
   Tot    0.000000   -0.000000   -0.000000
----------------------------------------
   Max    7.457080
   Res    3.653059    sqrt( Sum f_i^2 / 3N )
----------------------------------------
   Max    7.457080    constrained

Stress tensor Voigt[x,y,z,yz,xz,xy] (kbar):      163.69     -273.72     -336.17       71.54      160.01      244.43
(Free)E + p*V (eV/cell)    -2946.8883
Target enthalpy (eV/cell)    -2949.7226

siesta: Stress tensor (static) (eV/Ang**3):
         0.102194    0.152519    0.099841
         0.152519   -0.170743    0.044639
         0.099841    0.044639   -0.209713

siesta: Pressure (static):        148.60962417  kBar

siesta: Stress tensor (total) (eV/Ang**3):
         0.102168    0.152559    0.099868
         0.152559   -0.170841    0.044651
         0.099868    0.044651   -0.209821

siesta: Pressure (total):        148.73398512  kBar

siesta: E_kin PR =      39.456 K

siesta: Temp_ion =      37.426 K

                     ====================================
                        Begin MD step =      4
                     ====================================

outcoor: Atomic coordinates (fractional):                   
    0.00000000   -0.00000000    0.00000000   1       1  Mg
    0.50000000    0.50000000    0.50000000   1       2  Mg
    0.25000000    0.25000000    0.25000000   2       3  C
   -0.25000000   -0.25000000   -0.25000000   2       4  C
    0.52782938   -0.02782938    0.25000000   3       5  O
    0.25000000    0.52782938   -0.02782938   3       6  O
   -0.02782938    0.25000000    0.52782938   3       7  O
   -0.52782938    0.02782938   -0.25000000   3       8  O
   -0.25000000   -0.52782938    0.02782938   3       9  O
    0.02782938   -0.25000000   -0.52782938   3      10  O

outcell: Unit cell vectors (Ang):
        5.677886   -0.000409   -0.000267
        3.785742    4.231613   -0.000267
        3.785742    1.692612    3.878352

outcell: Cell vector modules (Ang)   :    5.677886    5.677886    5.677886
outcell: Cell angles (23,13,12) (deg):     48.1872     48.1872     48.1872
outcell: Cell volume (Ang**3)        :     93.1948
Gamma-point calculation with interaction between periodic images
Some features might not work optimally:
e.g. DM initialization from atomic data
<dSpData1D:S at geom step 4
  <sparsity:sparsity for geom step 4
    nrows_g=34 nrows=6 sparsity=.1765 nnzs=204, refcount: 7>
  <dData1D:(new from dSpData1D) n=204, refcount: 1>
refcount: 1>
new_DM -- step:     4
Re-using DM from previous geometries...
Number of DMs in history: 1
 DM extrapolation coefficients: 
1   1.00000
New DM after history re-use:
<dSpData2D:SpM extrapolated using coords
  <sparsity:sparsity for geom step 4
    nrows_g=34 nrows=6 sparsity=.1765 nnzs=204, refcount: 9>
  <dData2D:(temp array for extrapolation) n=204 m=1, refcount: 1>
refcount: 1>
No. of atoms with KB's overlaping orbs in proc 0. Max # of overlaps:      10      85
New grid distribution:   1
           1       1:   12    1:    6    1:    3
           2       1:   12    1:    6    4:    6
           3       1:   12    1:    6    7:    9
           4       1:   12    1:    6   10:   12
           5       1:   12    7:   12    1:    3
           6       1:   12    7:   12    4:    6
           7       1:   12    7:   12    7:    9
           8       1:   12    7:   12   10:   12

InitMesh: MESH =    24 x    24 x    24 =       13824
InitMesh: (bp) =    12 x    12 x    12 =        1728
InitMesh: Mesh cutoff (required, used) =    50.000    63.487 Ry
ExtMesh (bp) on 0 =    56 x    50 x    47 =      131600
New grid distribution:   2
           1       6:   12    1:    6    1:    6
           2       7:   12    7:   12    1:    6
           3       1:    6    1:    6    7:   12
           4       1:    5    1:    6    1:    6
           5       7:   12    1:    6    7:   12
           6       1:    6    7:   12    1:    6
           7       1:    7    7:   12    7:   12
           8       8:   12    7:   12    7:   12
New grid distribution:   3
           1       1:    6    7:   12    7:   12
           2       7:   12    1:    6    1:    6
           3       7:   12    1:    6    7:   12
           4       7:   12    7:   12    1:    6
           5       1:    6    1:    6    7:   12
           6       1:    6    1:    6    1:    6
           7       7:   12    7:   12    7:   12
           8       1:    6    7:   12    1:    6
Setting up quadratic distribution...
ExtMesh (bp) on 0 =    51 x    50 x    50 =      127500
PhiOnMesh: Number of (b)points on node 0 =                  252
PhiOnMesh: nlist on node 0 =                 5564

        iscf     Eharris(eV)        E_KS(eV)     FreeEng(eV)     dDmax    Ef(eV) dHmax(eV)
   scf:    1    -2955.694480    -2955.596321    -2955.596321  0.002872 -3.051082  0.021090
   scf:    2    -2955.596000    -2955.596271    -2955.596271  0.002780 -3.040860  0.024378
   scf:    3    -2955.596455    -2955.596395    -2955.596395  0.001503 -3.046183  0.001725
   scf:    4    -2955.596395    -2955.596395    -2955.596395  0.000017 -3.046047  0.001445
   scf:    5    -2955.596395    -2955.596395    -2955.596395  0.000016 -3.045905  0.001206
   scf:    6    -2955.596396    -2955.596395    -2955.596395  0.000013 -3.045791  0.001001
   scf:    7    -2955.596396    -2955.596396    -2955.596396  0.000013 -3.045705  0.000799

SCF Convergence by DM+H criterion
max |DM_out - DM_in|         :     0.0000130600
max |H_out - H_in|      (eV) :     0.0007988644
SCF cycle converged after 7 iterations

Using DM_out to compute the final energy and forces
No. of atoms with KB's overlaping orbs in proc 0. Max # of overlaps:      10      85

siesta: E_KS(eV) =            -2955.5964

siesta: Atomic forces (eV/Ang):
     1    0.000000   -0.000000    0.000000
     2   -0.000000    0.000000    0.000000
     3   -0.000000   -0.000001    0.000001
     4    0.000000    0.000001   -0.000001
     5    3.301714   -7.384701   -0.000000
     6   -0.000000    4.430452   -6.768030
     7   -3.301714    2.954251    6.768030
     8   -3.301714    7.384701    0.000000
     9    0.000000   -4.430452    6.768030
    10    3.301714   -2.954251   -6.768030
----------------------------------------
   Tot    0.000000   -0.000000   -0.000000
----------------------------------------
   Max    7.384701
   Res    3.617600    sqrt( Sum f_i^2 / 3N )
----------------------------------------
   Max    7.384701    constrained

Stress tensor Voigt[x,y,z,yz,xz,xy] (kbar):      163.86     -271.35     -333.49       71.18      159.20      243.20
(Free)E + p*V (eV/cell)    -2947.0462
Target enthalpy (eV/cell)    -2949.7797

siesta: Stress tensor (static) (eV/Ang**3):
         0.102375    0.151630    0.099259
         0.151630   -0.168970    0.044379
         0.099259    0.044379   -0.207713

siesta: Pressure (static):        146.49794541  kBar

siesta: Stress tensor (total) (eV/Ang**3):
         0.102272    0.151791    0.099365
         0.151791   -0.169362    0.044426
         0.099365    0.044426   -0.208146

siesta: Pressure (total):        146.99342998  kBar

siesta: E_kin PR =      77.092 K

siesta: Temp_ion =      83.671 K

                     ====================================
                        Begin MD step =      5
                     ====================================

outcoor: Atomic coordinates (fractional):                   
    0.00000000   -0.00000000    0.00000000   1       1  Mg
    0.50000000    0.50000000    0.50000000   1       2  Mg
    0.25000000    0.25000000    0.25000000   2       3  C
   -0.25000000   -0.25000000   -0.25000000   2       4  C
    0.52816158   -0.02816158    0.25000000   3       5  O
    0.25000000    0.52816158   -0.02816158   3       6  O
   -0.02816158    0.25000000    0.52816158   3       7  O
   -0.52816158    0.02816158   -0.25000000   3       8  O
   -0.25000000   -0.52816158    0.02816158   3       9  O
    0.02816158   -0.25000000   -0.52816158   3      10  O

outcell: Unit cell vectors (Ang):
        5.677923   -0.000680   -0.000445
        3.785564    4.231822   -0.000445
        3.785564    1.692532    3.878614

outcell: Cell vector modules (Ang)   :    5.677923    5.677923    5.677923
outcell: Cell angles (23,13,12) (deg):     48.1927     48.1927     48.1927
outcell: Cell volume (Ang**3)        :     93.2137
Gamma-point calculation with interaction between periodic images
Some features might not work optimally:
e.g. DM initialization from atomic data
<dSpData1D:S at geom step 5
  <sparsity:sparsity for geom step 5
    nrows_g=34 nrows=6 sparsity=.1765 nnzs=204, refcount: 7>
  <dData1D:(new from dSpData1D) n=204, refcount: 1>
refcount: 1>
new_DM -- step:     5
Re-using DM from previous geometries...
Number of DMs in history: 1
 DM extrapolation coefficients: 
1   1.00000
New DM after history re-use:
<dSpData2D:SpM extrapolated using coords
  <sparsity:sparsity for geom step 5
    nrows_g=34 nrows=6 sparsity=.1765 nnzs=204, refcount: 9>
  <dData2D:(temp array for extrapolation) n=204 m=1, refcount: 1>
refcount: 1>
No. of atoms with KB's overlaping orbs in proc 0. Max # of overlaps:      10      85
New grid distribution:   1
           1       1:   12    1:    6    1:    3
           2       1:   12    1:    6    4:    6
           3       1:   12    1:    6    7:    9
           4       1:   12    1:    6   10:   12
           5       1:   12    7:   12    1:    3
           6       1:   12    7:   12    4:    6
           7       1:   12    7:   12    7:    9
           8       1:   12    7:   12   10:   12

InitMesh: MESH =    24 x    24 x    24 =       13824
InitMesh: (bp) =    12 x    12 x    12 =        1728
InitMesh: Mesh cutoff (required, used) =    50.000    63.490 Ry
ExtMesh (bp) on 0 =    56 x    50 x    47 =      131600
New grid distribution:   2
           1       6:   12    1:    6    1:    6
           2       7:   12    7:   12    1:    6
           3       1:    6    1:    6    7:   12
           4       1:    5    1:    6    1:    6
           5       7:   12    1:    6    7:   12
           6       1:    6    7:   12    1:    6
           7       1:    7    7:   12    7:   12
           8       8:   12    7:   12    7:   12
New grid distribution:   3
           1       1:    6    7:   12    7:   12
           2       7:   12    1:    6    1:    6
           3       7:   12    1:    6    7:   12
           4       7:   12    7:   12    1:    6
           5       1:    6    1:    6    7:   12
           6       1:    6    1:    6    1:    6
           7       7:   12    7:   12    7:   12
           8       1:    6    7:   12    1:    6
Setting up quadratic distribution...
ExtMesh (bp) on 0 =    51 x    50 x    50 =      127500
PhiOnMesh: Number of (b)points on node 0 =                  252
PhiOnMesh: nlist on node 0 =                 5560

        iscf     Eharris(eV)        E_KS(eV)     FreeEng(eV)     dDmax    Ef(eV) dHmax(eV)
   scf:    1    -2955.811099    -2955.675558    -2955.675558  0.003963 -3.084541  0.029009
   scf:    2    -2955.674949    -2955.675461    -2955.675461  0.003810 -3.070353  0.033544
   scf:    3    -2955.675809    -2955.675696    -2955.675696  0.002062 -3.077743  0.002401
   scf:    4    -2955.675697    -2955.675696    -2955.675696  0.000026 -3.077520  0.001996
   scf:    5    -2955.675697    -2955.675697    -2955.675697  0.000027 -3.077279  0.001599
   scf:    6    -2955.675697    -2955.675697    -2955.675697  0.000023 -3.077082  0.001256
   scf:    7    -2955.675697    -2955.675697    -2955.675697  0.000020 -3.076926  0.000927

SCF Convergence by DM+H criterion
max |DM_out - DM_in|         :     0.0000204766
max |H_out - H_in|      (eV) :     0.0009271296
SCF cycle converged after 7 iterations

Using DM_out to compute the final energy and forces
No. of atoms with KB's overlaping orbs in proc 0. Max # of overlaps:      10      85

siesta: E_KS(eV) =            -2955.6757

siesta: Atomic forces (eV/Ang):
     1   -0.000000   -0.000000    0.000000
     2   -0.000000    0.000000    0.000000
     3   -0.000000    0.000001   -0.000001
     4    0.000000   -0.000001    0.000001
     5    3.241949   -7.251032    0.000000
     6   -0.000000    4.350255   -6.645521
     7   -3.241948    2.900776    6.645521
     8   -3.241949    7.251032   -0.000000
     9    0.000000   -4.350255    6.645521
    10    3.241948   -2.900776   -6.645521
----------------------------------------
   Tot    0.000000   -0.000000   -0.000000
----------------------------------------
   Max    7.251032
   Res    3.552117    sqrt( Sum f_i^2 / 3N )
----------------------------------------
   Max    7.251032    constrained

Stress tensor Voigt[x,y,z,yz,xz,xy] (kbar):      165.38     -263.79     -325.06       70.19      156.99      239.82
(Free)E + p*V (eV/cell)    -2947.4634
Target enthalpy (eV/cell)    -2949.8578

siesta: Stress tensor (static) (eV/Ang**3):
         0.103449    0.149321    0.097748
         0.149321   -0.163765    0.043703
         0.097748    0.043703   -0.201918

siesta: Pressure (static):        140.04927526  kBar

siesta: Stress tensor (total) (eV/Ang**3):
         0.103219    0.149682    0.097984
         0.149682   -0.164640    0.043809
         0.097984    0.043809   -0.202885

siesta: Pressure (total):        141.15682611  kBar

siesta: E_kin PR =     126.238 K

siesta: Temp_ion =     147.235 K

                     ====================================
                        Begin MD step =      6
                     ====================================

outcoor: Atomic coordinates (fractional):                   
    0.00000000   -0.00000000    0.00000000   1       1  Mg
    0.50000000    0.50000000    0.50000000   1       2  Mg
    0.25000000    0.25000000    0.25000000   2       3  C
   -0.25000000   -0.25000000   -0.25000000   2       4  C
    0.52858599   -0.02858599    0.25000000   3       5  O
    0.25000000    0.52858599   -0.02858599   3       6  O
   -0.02858599    0.25000000    0.52858599   3       7  O
   -0.52858599    0.02858599   -0.25000000   3       8  O
   -0.25000000   -0.52858599    0.02858599   3       9  O
    0.02858599   -0.25000000   -0.52858599   3      10  O

outcell: Unit cell vectors (Ang):
        5.677968   -0.001018   -0.000666
        3.785343    4.232080   -0.000666
        3.785343    1.692433    3.878940

outcell: Cell vector modules (Ang)   :    5.677968    5.677968    5.677968
outcell: Cell angles (23,13,12) (deg):     48.1995     48.1995     48.1995
outcell: Cell volume (Ang**3)        :     93.2372
Gamma-point calculation with interaction between periodic images
Some features might not work optimally:
e.g. DM initialization from atomic data
<dSpData1D:S at geom step 6
  <sparsity:sparsity for geom step 6
    nrows_g=34 nrows=6 sparsity=.1765 nnzs=204, refcount: 7>
  <dData1D:(new from dSpData1D) n=204, refcount: 1>
refcount: 1>
new_DM -- step:     6
Re-using DM from previous geometries...
Number of DMs in history: 1
 DM extrapolation coefficients: 
1   1.00000
New DM after history re-use:
<dSpData2D:SpM extrapolated using coords
  <sparsity:sparsity for geom step 6
    nrows_g=34 nrows=6 sparsity=.1765 nnzs=204, refcount: 9>
  <dData2D:(temp array for extrapolation) n=204 m=1, refcount: 1>
refcount: 1>
No. of atoms with KB's overlaping orbs in proc 0. Max # of overlaps:      10      85
New grid distribution:   1
           1       1:   12    1:    6    1:    3
           2       1:   12    1:    6    4:    6
           3       1:   12    1:    6    7:    9
           4       1:   12    1:    6   10:   12
           5       1:   12    7:   12    1:    3
           6       1:   12    7:   12    4:    6
           7       1:   12    7:   12    7:    9
           8       1:   12    7:   12   10:   12

InitMesh: MESH =    24 x    24 x    24 =       13824
InitMesh: (bp) =    12 x    12 x    12 =        1728
InitMesh: Mesh cutoff (required, used) =    50.000    63.494 Ry
ExtMesh (bp) on 0 =    56 x    50 x    47 =      131600
New grid distribution:   2
           1       6:   12    1:    6    1:    6
           2       7:   12    7:   12    1:    6
           3       1:    6    1:    6    7:   12
           4       1:    5    1:    6    1:    6
           5       7:   12    1:    6    7:   12
           6       1:    6    7:   12    1:    6
           7       1:    7    7:   12    7:   12
           8       8:   12    7:   12    7:   12
New grid distribution:   3
           1       1:    6    7:   12    7:   12
           2       7:   12    1:    6    1:    6
           3       7:   12    1:    6    7:   12
           4       7:   12    7:   12    1:    6
           5       1:    6    1:    6    7:   12
           6       1:    6    1:    6    1:    6
           7       7:   12    7:   12    7:   12
           8       1:    6    7:   12    1:    6
Setting up quadratic distribution...
ExtMesh (bp) on 0 =    51 x    50 x    50 =      127500
PhiOnMesh: Number of (b)points on node 0 =                  252
PhiOnMesh: nlist on node 0 =                 5554

        iscf     Eharris(eV)        E_KS(eV)     FreeEng(eV)     dDmax    Ef(eV) dHmax(eV)
   scf:    1    -2955.946386    -2955.774757    -2955.774757  0.005054 -3.126354  0.037089
   scf:    2    -2955.773861    -2955.774708    -2955.774708  0.004879 -3.108191  0.043122
   scf:    3    -2955.775168    -2955.774982    -2955.774982  0.002649 -3.117681  0.003077
   scf:    4    -2955.774983    -2955.774982    -2955.774982  0.000037 -3.117356  0.002514
   scf:    5    -2955.774984    -2955.774983    -2955.774983  0.000042 -3.116975  0.001890
   scf:    6    -2955.774984    -2955.774984    -2955.774984  0.000037 -3.116649  0.001335
   scf:    7    -2955.774984    -2955.774984    -2955.774984  0.000031 -3.116397  0.000848

SCF Convergence by DM+H criterion
max |DM_out - DM_in|         :     0.0000311247
max |H_out - H_in|      (eV) :     0.0008476204
SCF cycle converged after 7 iterations

Using DM_out to compute the final energy and forces
No. of atoms with KB's overlaping orbs in proc 0. Max # of overlaps:      10      85

siesta: E_KS(eV) =            -2955.7750

siesta: Atomic forces (eV/Ang):
     1    0.000000   -0.000000    0.000000
     2   -0.000000    0.000000    0.000000
     3   -0.000001    0.000002   -0.000002
     4    0.000001   -0.000002    0.000002
     5    3.124705   -6.988800   -0.000001
     6   -0.000000    4.192928   -6.405185
     7   -3.124704    2.795869    6.405187
     8   -3.124705    6.988800    0.000001
     9    0.000000   -4.192928    6.405185
    10    3.124704   -2.795869   -6.405187
----------------------------------------
   Tot    0.000000   -0.000000   -0.000000
----------------------------------------
   Max    6.988800
   Res    3.423655    sqrt( Sum f_i^2 / 3N )
----------------------------------------
   Max    6.988800    constrained

Stress tensor Voigt[x,y,z,yz,xz,xy] (kbar):      170.32     -244.36     -303.57       67.82      151.69      231.73
(Free)E + p*V (eV/cell)    -2948.4502
Target enthalpy (eV/cell)    -2949.9556

siesta: Stress tensor (static) (eV/Ang**3):
         0.106712    0.143998    0.094263
         0.143998   -0.150977    0.042145
         0.094263    0.042145   -0.187769

siesta: Pressure (static):        123.92111169  kBar

siesta: Stress tensor (total) (eV/Ang**3):
         0.106307    0.144633    0.094679
         0.144633   -0.152517    0.042331
         0.094679    0.042331   -0.189472

siesta: Pressure (total):        125.86967291  kBar

siesta: E_kin PR =     184.167 K

siesta: Temp_ion =     226.183 K

                     ====================================
                        Begin MD step =      7
                     ====================================

outcoor: Atomic coordinates (fractional):                   
    0.00000000   -0.00000000    0.00000000   1       1  Mg
    0.50000000    0.50000000    0.50000000   1       2  Mg
    0.25000000    0.25000000    0.25000000   2       3  C
   -0.25000000   -0.25000000   -0.25000000   2       4  C
    0.52909922   -0.02909922    0.25000000   3       5  O
    0.25000000    0.52909922   -0.02909922   3       6  O
   -0.02909922    0.25000000    0.52909922   3       7  O
   -0.52909922    0.02909922   -0.25000000   3       8  O
   -0.25000000   -0.52909922    0.02909922   3       9  O
    0.02909922   -0.25000000   -0.52909922   3      10  O

outcell: Unit cell vectors (Ang):
        5.678018   -0.001417   -0.000928
        3.785079    4.232384   -0.000928
        3.785079    1.692315    3.879322

outcell: Cell vector modules (Ang)   :    5.678019    5.678019    5.678019
outcell: Cell angles (23,13,12) (deg):     48.2076     48.2076     48.2076
outcell: Cell volume (Ang**3)        :     93.2648
Gamma-point calculation with interaction between periodic images
Some features might not work optimally:
e.g. DM initialization from atomic data
<dSpData1D:S at geom step 7
  <sparsity:sparsity for geom step 7
    nrows_g=34 nrows=6 sparsity=.1765 nnzs=204, refcount: 7>
  <dData1D:(new from dSpData1D) n=204, refcount: 1>
refcount: 1>
new_DM -- step:     7
Re-using DM from previous geometries...
Number of DMs in history: 1
 DM extrapolation coefficients: 
1   1.00000
New DM after history re-use:
<dSpData2D:SpM extrapolated using coords
  <sparsity:sparsity for geom step 7
    nrows_g=34 nrows=6 sparsity=.1765 nnzs=204, refcount: 9>
  <dData2D:(temp array for extrapolation) n=204 m=1, refcount: 1>
refcount: 1>
No. of atoms with KB's overlaping orbs in proc 0. Max # of overlaps:      10      85
New grid distribution:   1
           1       1:   12    1:    6    1:    3
           2       1:   12    1:    6    4:    6
           3       1:   12    1:    6    7:    9
           4       1:   12    1:    6   10:   12
           5       1:   12    7:   12    1:    3
           6       1:   12    7:   12    4:    6
           7       1:   12    7:   12    7:    9
           8       1:   12    7:   12   10:   12

InitMesh: MESH =    24 x    24 x    24 =       13824
InitMesh: (bp) =    12 x    12 x    12 =        1728
InitMesh: Mesh cutoff (required, used) =    50.000    63.498 Ry
ExtMesh (bp) on 0 =    56 x    50 x    47 =      131600
New grid distribution:   2
           1       6:   12    1:    6    1:    6
           2       7:   12    7:   12    1:    6
           3       1:    6    1:    6    7:   12
           4       1:    5    1:    6    1:    6
           5       7:   12    1:    6    7:   12
           6       1:    6    7:   12    1:    6
           7       1:    7    7:   12    7:   12
           8       8:   12    7:   12    7:   12
New grid distribution:   3
           1       1:    6    7:   12    7:   12
           2       7:   12    1:    6    1:    6
           3       7:   12    1:    6    7:   12
           4       7:   12    7:   12    1:    6
           5       1:    6    1:    6    7:   12
           6       1:    6    1:    6    1:    6
           7       7:   12    7:   12    7:   12
           8       1:    6    7:   12    1:    6
Setting up quadratic distribution...
ExtMesh (bp) on 0 =    51 x    50 x    50 =      127500
PhiOnMesh: Number of (b)points on node 0 =                  252
PhiOnMesh: nlist on node 0 =                 5553

        iscf     Eharris(eV)        E_KS(eV)     FreeEng(eV)     dDmax    Ef(eV) dHmax(eV)
   scf:    1    -2956.095604    -2955.890042    -2955.890042  0.006017 -3.176056  0.044834
   scf:    2    -2955.888662    -2955.889912    -2955.889912  0.005900 -3.153977  0.052404
   scf:    3    -2955.890757    -2955.890483    -2955.890483  0.003213 -3.165537  0.003772
   scf:    4    -2955.890486    -2955.890484    -2955.890484  0.000050 -3.165088  0.003001
   scf:    5    -2955.890487    -2955.890486    -2955.890486  0.000064 -3.164504  0.002052
   scf:    6    -2955.890487    -2955.890486    -2955.890486  0.000056 -3.163998  0.001205
   scf:    7    -2955.890487    -2955.890486    -2955.890486  0.000040 -3.163665  0.000595

SCF Convergence by DM+H criterion
max |DM_out - DM_in|         :     0.0000395862
max |H_out - H_in|      (eV) :     0.0005947775
SCF cycle converged after 7 iterations

Using DM_out to compute the final energy and forces
No. of atoms with KB's overlaping orbs in proc 0. Max # of overlaps:      10      85

siesta: E_KS(eV) =            -2955.8905

siesta: Atomic forces (eV/Ang):
     1   -0.000000   -0.000000    0.000000
     2   -0.000000    0.000000    0.000000
     3   -0.000001    0.000001   -0.000000
     4    0.000001   -0.000001    0.000000
     5    3.057081   -6.837550    0.000000
     6    0.000000    4.102187   -6.266568
     7   -3.057080    2.735361    6.266569
     8   -3.057081    6.837550   -0.000000
     9   -0.000000   -4.102187    6.266568
    10    3.057080   -2.735361   -6.266569
----------------------------------------
   Tot    0.000000   -0.000000   -0.000000
----------------------------------------
   Max    6.837550
   Res    3.349562    sqrt( Sum f_i^2 / 3N )
----------------------------------------
   Max    6.837550    constrained

Stress tensor Voigt[x,y,z,yz,xz,xy] (kbar):      170.61     -239.33     -297.86       67.05      149.96      229.08
(Free)E + p*V (eV/cell)    -2948.7774
Target enthalpy (eV/cell)    -2950.0694

siesta: Stress tensor (static) (eV/Ang**3):
         0.107106    0.142002    0.092957
         0.142002   -0.147011    0.041561
         0.092957    0.041561   -0.183293

siesta: Pressure (static):        119.20221725  kBar

siesta: Stress tensor (total) (eV/Ang**3):
         0.106484    0.142977    0.093595
         0.142977   -0.149377    0.041846
         0.093595    0.041846   -0.185909

siesta: Pressure (total):        122.19486920  kBar

siesta: E_kin PR =     249.538 K

siesta: Temp_ion =     318.961 K

                     ====================================
                        Begin MD step =      8
                     ====================================

outcoor: Atomic coordinates (fractional):                   
    0.00000000   -0.00000000    0.00000000   1       1  Mg
    0.50000000    0.50000000    0.50000000   1       2  Mg
    0.25000000    0.25000000    0.25000000   2       3  C
   -0.25000000   -0.25000000   -0.25000000   2       4  C
    0.52969927   -0.02969926    0.25000000   3       5  O
    0.25000000    0.52969927   -0.02969927   3       6  O
   -0.02969927    0.25000000    0.52969927   3       7  O
   -0.52969927    0.02969926   -0.25000000   3       8  O
   -0.25000000   -0.52969927    0.02969927   3       9  O
    0.02969927   -0.25000000   -0.52969927   3      10  O

outcell: Unit cell vectors (Ang):
        5.678073   -0.001876   -0.001228
        3.784773    4.232730   -0.001228
        3.784773    1.692179    3.879760

outcell: Cell vector modules (Ang)   :    5.678073    5.678073    5.678073
outcell: Cell angles (23,13,12) (deg):     48.2169     48.2169     48.2169
outcell: Cell volume (Ang**3)        :     93.2964
Gamma-point calculation with interaction between periodic images
Some features might not work optimally:
e.g. DM initialization from atomic data
<dSpData1D:S at geom step 8
  <sparsity:sparsity for geom step 8
    nrows_g=34 nrows=6 sparsity=.1765 nnzs=204, refcount: 7>
  <dData1D:(new from dSpData1D) n=204, refcount: 1>
refcount: 1>
new_DM -- step:     8
Re-using DM from previous geometries...
Number of DMs in history: 1
 DM extrapolation coefficients: 
1   1.00000
New DM after history re-use:
<dSpData2D:SpM extrapolated using coords
  <sparsity:sparsity for geom step 8
    nrows_g=34 nrows=6 sparsity=.1765 nnzs=204, refcount: 9>
  <dData2D:(temp array for extrapolation) n=204 m=1, refcount: 1>
refcount: 1>
No. of atoms with KB's overlaping orbs in proc 0. Max # of overlaps:      10      85
New grid distribution:   1
           1       1:   12    1:    6    1:    3
           2       1:   12    1:    6    4:    6
           3       1:   12    1:    6    7:    9
           4       1:   12    1:    6   10:   12
           5       1:   12    7:   12    1:    3
           6       1:   12    7:   12    4:    6
           7       1:   12    7:   12    7:    9
           8       1:   12    7:   12   10:   12

InitMesh: MESH =    24 x    24 x    24 =       13824
InitMesh: (bp) =    12 x    12 x    12 =        1728
InitMesh: Mesh cutoff (required, used) =    50.000    63.504 Ry
ExtMesh (bp) on 0 =    56 x    50 x    47 =      131600
New grid distribution:   2
           1       6:   12    1:    6    1:    6
           2       7:   12    7:   12    1:    6
           3       1:    6    1:    6    7:   12
           4       1:    5    1:    6    1:    6
           5       7:   12    1:    6    7:   12
           6       1:    6    7:   12    1:    6
           7       1:    7    7:   12    7:   12
           8       8:   12    7:   12    7:   12
New grid distribution:   3
           1       1:    6    7:   12    7:   12
           2       7:   12    1:    6    1:    6
           3       7:   12    1:    6    7:   12
           4       7:   12    7:   12    1:    6
           5       1:    6    1:    6    7:   12
           6       1:    6    1:    6    1:    6
           7       7:   12    7:   12    7:   12
           8       1:    6    7:   12    1:    6
Setting up quadratic distribution...
ExtMesh (bp) on 0 =    51 x    50 x    50 =      127500
PhiOnMesh: Number of (b)points on node 0 =                  252
PhiOnMesh: nlist on node 0 =                 5553

        iscf     Eharris(eV)        E_KS(eV)     FreeEng(eV)     dDmax    Ef(eV) dHmax(eV)
   scf:    1    -2956.259474    -2956.021492    -2956.021492  0.007034 -3.233267  0.052448
   scf:    2    -2956.019413    -2956.021146    -2956.021146  0.006915 -3.207372  0.061717
   scf:    3    -2956.022316    -2956.021938    -2956.021938  0.003778 -3.220969  0.004466
   scf:    4    -2956.021942    -2956.021940    -2956.021940  0.000066 -3.220364  0.003452
   scf:    5    -2956.021943    -2956.021942    -2956.021942  0.000091 -3.219514  0.002078
   scf:    6    -2956.021943    -2956.021943    -2956.021943  0.000076 -3.218826  0.000937

SCF Convergence by DM+H criterion
max |DM_out - DM_in|         :     0.0000757172
max |H_out - H_in|      (eV) :     0.0009374638
SCF cycle converged after 6 iterations

Using DM_out to compute the final energy and forces
No. of atoms with KB's overlaping orbs in proc 0. Max # of overlaps:      10      85

siesta: E_KS(eV) =            -2956.0219

siesta: Atomic forces (eV/Ang):
     1    0.000000    0.000000    0.000000
     2   -0.000000    0.000000    0.000000
     3   -0.000001    0.000004   -0.000002
     4    0.000001   -0.000004    0.000002
     5    2.967187   -6.636493   -0.000000
     6    0.000000    3.981562   -6.082300
     7   -2.967187    2.654928    6.082302
     8   -2.967187    6.636493    0.000000
     9   -0.000000   -3.981562    6.082300
    10    2.967187   -2.654928   -6.082302
----------------------------------------
   Tot    0.000000    0.000000   -0.000000
----------------------------------------
   Max    6.636493
   Res    3.251068    sqrt( Sum f_i^2 / 3N )
----------------------------------------
   Max    6.636493    constrained

Stress tensor Voigt[x,y,z,yz,xz,xy] (kbar):      171.87     -231.21     -288.77       65.93      147.45      225.25
(Free)E + p*V (eV/cell)    -2949.2652
Target enthalpy (eV/cell)    -2950.1989

siesta: Stress tensor (static) (eV/Ang**3):
         0.108151    0.139213    0.091131
         0.139213   -0.140974    0.040745
         0.091131    0.040745   -0.176545

siesta: Pressure (static):        111.81620505  kBar

siesta: Stress tensor (total) (eV/Ang**3):
         0.107273    0.140587    0.092030
         0.140586   -0.144310    0.041147
         0.092030    0.041147   -0.180231

siesta: Pressure (total):        116.03518979  kBar

siesta: E_kin PR =     322.690 K

siesta: Temp_ion =     424.636 K

                     ====================================
                        Begin MD step =      9
                     ====================================

outcoor: Atomic coordinates (fractional):                   
    0.00000000   -0.00000000    0.00000000   1       1  Mg
    0.50000000    0.50000000    0.50000000   1       2  Mg
    0.25000000    0.25000000    0.25000000   2       3  C
   -0.25000000   -0.25000000   -0.25000000   2       4  C
    0.53038350   -0.03038350    0.25000000   3       5  O
    0.25000000    0.53038350   -0.03038350   3       6  O
   -0.03038350    0.25000000    0.53038350   3       7  O
   -0.53038350    0.03038350   -0.25000000   3       8  O
   -0.25000000   -0.53038350    0.03038350   3       9  O
    0.03038350   -0.25000000   -0.53038350   3      10  O

outcell: Unit cell vectors (Ang):
        5.678131   -0.002393   -0.001566
        3.784426    4.233118   -0.001566
        3.784426    1.692024    3.880251

outcell: Cell vector modules (Ang)   :    5.678132    5.678132    5.678132
outcell: Cell angles (23,13,12) (deg):     48.2273     48.2273     48.2273
outcell: Cell volume (Ang**3)        :     93.3318
Gamma-point calculation with interaction between periodic images
Some features might not work optimally:
e.g. DM initialization from atomic data
<dSpData1D:S at geom step 9
  <sparsity:sparsity for geom step 9
    nrows_g=34 nrows=6 sparsity=.1765 nnzs=204, refcount: 7>
  <dData1D:(new from dSpData1D) n=204, refcount: 1>
refcount: 1>
new_DM -- step:     9
Re-using DM from previous geometries...
Number of DMs in history: 1
 DM extrapolation coefficients: 
1   1.00000
New DM after history re-use:
<dSpData2D:SpM extrapolated using coords
  <sparsity:sparsity for geom step 9
    nrows_g=34 nrows=6 sparsity=.1765 nnzs=204, refcount: 9>
  <dData2D:(temp array for extrapolation) n=204 m=1, refcount: 1>
refcount: 1>
No. of atoms with KB's overlaping orbs in proc 0. Max # of overlaps:      10      85
New grid distribution:   1
           1       1:   12    1:    6    1:    3
           2       1:   12    1:    6    4:    6
           3       1:   12    1:    6    7:    9
           4       1:   12    1:    6   10:   12
           5       1:   12    7:   12    1:    3
           6       1:   12    7:   12    4:    6
           7       1:   12    7:   12    7:    9
           8       1:   12    7:   12   10:   12

InitMesh: MESH =    24 x    24 x    24 =       13824
InitMesh: (bp) =    12 x    12 x    12 =        1728
InitMesh: Mesh cutoff (required, used) =    50.000    63.510 Ry
ExtMesh (bp) on 0 =    56 x    50 x    47 =      131600
New grid distribution:   2
           1       6:   12    1:    6    1:    6
           2       7:   12    7:   12    1:    6
           3       1:    6    1:    6    7:   12
           4       1:    5    1:    6    1:    6
           5       7:   12    1:    6    7:   12
           6       1:    6    7:   12    1:    6
           7       1:    7    7:   12    7:   12
           8       8:   12    7:   12    7:   12
New grid distribution:   3
           1       1:    6    7:   12    7:   12
           2       7:   12    1:    6    1:    6
           3       7:   12    1:    6    7:   12
           4       7:   12    7:   12    1:    6
           5       1:    6    1:    6    7:   12
           6       1:    6    1:    6    1:    6
           7       7:   12    7:   12    7:   12
           8       1:    6    7:   12    1:    6
Setting up quadratic distribution...
ExtMesh (bp) on 0 =    51 x    50 x    50 =      127500
PhiOnMesh: Number of (b)points on node 0 =                  252
PhiOnMesh: nlist on node 0 =                 5548

        iscf     Eharris(eV)        E_KS(eV)     FreeEng(eV)     dDmax    Ef(eV) dHmax(eV)
   scf:    1    -2956.431181    -2956.162669    -2956.162669  0.007983 -3.297914  0.060282
   scf:    2    -2956.159840    -2956.162190    -2956.162190  0.008002 -3.268282  0.071770
   scf:    3    -2956.163770    -2956.163262    -2956.163262  0.004396 -3.283933  0.005085
   scf:    4    -2956.163267    -2956.163264    -2956.163264  0.000083 -3.283168  0.003817
   scf:    5    -2956.163269    -2956.163267    -2956.163267  0.000121 -3.282033  0.001993
   scf:    6    -2956.163268    -2956.163268    -2956.163268  0.000087 -3.281235  0.000682

SCF Convergence by DM+H criterion
max |DM_out - DM_in|         :     0.0000870551
max |H_out - H_in|      (eV) :     0.0006819779
SCF cycle converged after 6 iterations

Using DM_out to compute the final energy and forces
No. of atoms with KB's overlaping orbs in proc 0. Max # of overlaps:      10      85

siesta: E_KS(eV) =            -2956.1633

siesta: Atomic forces (eV/Ang):
     1    0.000000   -0.000000    0.000000
     2   -0.000000    0.000000    0.000000
     3   -0.000000    0.000001   -0.000002
     4    0.000000   -0.000001    0.000002
     5    2.785142   -6.229326    0.000001
     6   -0.000000    3.737284   -5.709135
     7   -2.785143    2.492042    5.709136
     8   -2.785142    6.229326   -0.000001
     9    0.000000   -3.737284    5.709135
    10    2.785143   -2.492042   -5.709136
----------------------------------------
   Tot    0.000000   -0.000000   -0.000000
----------------------------------------
   Max    6.229326
   Res    3.051607    sqrt( Sum f_i^2 / 3N )
----------------------------------------
   Max    6.229326    constrained

Stress tensor Voigt[x,y,z,yz,xz,xy] (kbar):      179.74     -200.21     -254.46       62.14      138.99      212.32
(Free)E + p*V (eV/cell)    -2950.8250
Target enthalpy (eV/cell)    -2950.3380

siesta: Stress tensor (static) (eV/Ang**3):
         0.113351    0.130688    0.085550
         0.130688   -0.120518    0.038250
         0.085550    0.038250   -0.153910

siesta: Pressure (static):         86.02605957  kBar

siesta: Stress tensor (total) (eV/Ang**3):
         0.112183    0.132516    0.086747
         0.132516   -0.124958    0.038785
         0.086747    0.038785   -0.158817

siesta: Pressure (total):         91.64098327  kBar

siesta: E_kin PR =     398.229 K

siesta: Temp_ion =     539.577 K

                     ====================================
                        Begin MD step =     10
                     ====================================

outcoor: Atomic coordinates (fractional):                   
    0.00000000   -0.00000000    0.00000000   1       1  Mg
    0.50000000    0.50000000    0.50000000   1       2  Mg
    0.25000000    0.24999999    0.25000000   2       3  C
   -0.25000000   -0.24999999   -0.25000000   2       4  C
    0.53114665   -0.03114665    0.25000000   3       5  O
    0.25000000    0.53114666   -0.03114666   3       6  O
   -0.03114665    0.25000000    0.53114665   3       7  O
   -0.53114665    0.03114665   -0.25000000   3       8  O
   -0.25000000   -0.53114666    0.03114666   3       9  O
    0.03114665   -0.25000000   -0.53114665   3      10  O

outcell: Unit cell vectors (Ang):
        5.678187   -0.002961   -0.001938
        3.784041    4.233539   -0.001938
        3.784041    1.691851    3.880786

outcell: Cell vector modules (Ang)   :    5.678188    5.678188    5.678188
outcell: Cell angles (23,13,12) (deg):     48.2388     48.2388     48.2388
outcell: Cell volume (Ang**3)        :     93.3703
Gamma-point calculation with interaction between periodic images
Some features might not work optimally:
e.g. DM initialization from atomic data
<dSpData1D:S at geom step 10
  <sparsity:sparsity for geom step 10
    nrows_g=34 nrows=6 sparsity=.1765 nnzs=204, refcount: 7>
  <dData1D:(new from dSpData1D) n=204, refcount: 1>
refcount: 1>
new_DM -- step:    10
Re-using DM from previous geometries...
Number of DMs in history: 1
 DM extrapolation coefficients: 
1   1.00000
New DM after history re-use:
[...]
refcount: 1>
new_DM -- step:    48
Re-using DM from previous geometries...
Number of DMs in history: 1
 DM extrapolation coefficients: 
1   1.00000
New DM after history re-use:
<dSpData2D:SpM extrapolated using coords
  <sparsity:sparsity for geom step 48
    nrows_g=34 nrows=6 sparsity=.1765 nnzs=204, refcount: 9>
  <dData2D:(temp array for extrapolation) n=204 m=1, refcount: 1>
refcount: 1>
No. of atoms with KB's overlaping orbs in proc 0. Max # of overlaps:      10      85
New grid distribution:   1
           1       1:   12    1:    6    1:    3
           2       1:   12    1:    6    4:    6
           3       1:   12    1:    6    7:    9
           4       1:   12    1:    6   10:   12
           5       1:   12    7:   12    1:    3
           6       1:   12    7:   12    4:    6
           7       1:   12    7:   12    7:    9
           8       1:   12    7:   12   10:   12

InitMesh: MESH =    24 x    24 x    24 =       13824
InitMesh: (bp) =    12 x    12 x    12 =        1728
InitMesh: Mesh cutoff (required, used) =    50.000    64.303 Ry
ExtMesh (bp) on 0 =    56 x    50 x    47 =      131600
New grid distribution:   2
           1       1:    6    7:   12    7:   12
           2       7:   12    1:    6    1:    6
           3       7:   12    1:    6    7:   12
           4       7:   12    7:   12    1:    6
           5       1:    6    1:    6    7:   12
           6       1:    6    1:    6    1:    6
           7       7:   12    7:   12    7:   12
           8       1:    6    7:   12    1:    6
New grid distribution:   3
           1       1:    6    7:   12    7:   12
           2       7:   12    1:    6    1:    6
           3       7:   12    1:    6    7:   12
           4       7:   12    7:   12    1:    6
           5       1:    6    1:    6    7:   12
           6       1:    6    1:    6    1:    6
           7       7:   12    7:   12    7:   12
           8       1:    6    7:   12    1:    6
Setting up quadratic distribution...
ExtMesh (bp) on 0 =    50 x    50 x    50 =      125000
PhiOnMesh: Number of (b)points on node 0 =                  216
PhiOnMesh: nlist on node 0 =                 4701

        iscf     Eharris(eV)        E_KS(eV)     FreeEng(eV)     dDmax    Ef(eV) dHmax(eV)
   scf:    1    -2956.512320    -2956.409490    -2956.409490  0.008436 -4.016945  0.079590
   scf:    2    -2956.389675    -2956.404050    -2956.404050  0.015528 -4.029303  0.171803
   scf:    3    -2956.412565    -2956.410580    -2956.410580  0.010877 -4.020220  0.006464
   scf:    4    -2956.410595    -2956.410588    -2956.410588  0.000115 -4.019338  0.004475
   scf:    5    -2956.410599    -2956.410594    -2956.410594  0.000182 -4.017950  0.001251
   scf:    6    -2956.410595    -2956.410594    -2956.410594  0.000058 -4.017514  0.000213

SCF Convergence by DM+H criterion
max |DM_out - DM_in|         :     0.0000577412
max |H_out - H_in|      (eV) :     0.0002132082
SCF cycle converged after 6 iterations

Using DM_out to compute the final energy and forces
No. of atoms with KB's overlaping orbs in proc 0. Max # of overlaps:      10      85

siesta: E_KS(eV) =            -2956.4106

siesta: Atomic forces (eV/Ang):
     1    0.000000   -0.000000    0.000000
     2   -0.000000    0.000000    0.000000
     3    0.000003    0.000000   -0.000010
     4   -0.000003   -0.000000    0.000010
     5   -1.504325    3.364615   -0.000000
     6    0.000001   -2.018604    3.083653
     7    1.504323   -1.346012   -3.083639
     8    1.504325   -3.364615    0.000000
     9   -0.000001    2.018604   -3.083653
    10   -1.504323    1.346012    3.083639
----------------------------------------
   Tot   -0.000000    0.000000    0.000000
----------------------------------------
   Max    3.364615
   Res    1.648249    sqrt( Sum f_i^2 / 3N )
----------------------------------------
   Max    3.364615    constrained

Stress tensor Voigt[x,y,z,yz,xz,xy] (kbar):      222.64      267.92      274.38       -7.40      -16.56      -25.30
(Free)E + p*V (eV/cell)    -2971.3652
Target enthalpy (eV/cell)    -2950.5456

siesta: Stress tensor (static) (eV/Ang**3):
         0.140740   -0.018575   -0.012159
        -0.018575    0.173980   -0.005437
        -0.012159   -0.005437    0.178726

siesta: Pressure (static):       -263.53202289  kBar

siesta: Stress tensor (total) (eV/Ang**3):
         0.138961   -0.015790   -0.010336
        -0.015790    0.167218   -0.004622
        -0.010336   -0.004622    0.171253

siesta: Pressure (total):       -254.97999220  kBar

siesta: E_kin PR =    2216.428 K

siesta: Temp_ion =     584.673 K

                     ====================================
                        Begin MD step =     49
                     ====================================

outcoor: Atomic coordinates (fractional):                   
    0.00000000   -0.00000000   -0.00000000   1       1  Mg
    0.50000000    0.50000000    0.50000000   1       2  Mg
    0.25000000    0.25000000    0.25000000   2       3  C
   -0.25000000   -0.25000000   -0.25000000   2       4  C
    0.57604623   -0.07604623    0.25000000   3       5  O
    0.25000000    0.57604623   -0.07604623   3       6  O
   -0.07604623    0.25000000    0.57604623   3       7  O
   -0.57604623    0.07604623   -0.25000000   3       8  O
   -0.25000000   -0.57604623    0.07604623   3       9  O
    0.07604623   -0.25000000   -0.57604623   3      10  O

outcell: Unit cell vectors (Ang):
        5.657474   -0.027365   -0.017914
        3.752042    4.234376   -0.017914
        3.752042    1.677545    3.887944

outcell: Cell vector modules (Ang)   :    5.657569    5.657569    5.657569
outcell: Cell angles (23,13,12) (deg):     48.7330     48.7330     48.7330
outcell: Cell volume (Ang**3)        :     93.8820
Gamma-point calculation with interaction between periodic images
Some features might not work optimally:
e.g. DM initialization from atomic data
<dSpData1D:S at geom step 49
  <sparsity:sparsity for geom step 49
    nrows_g=34 nrows=6 sparsity=.1765 nnzs=204, refcount: 7>
  <dData1D:(new from dSpData1D) n=204, refcount: 1>
refcount: 1>
new_DM -- step:    49
Re-using DM from previous geometries...
Number of DMs in history: 1
 DM extrapolation coefficients: 
1   1.00000
New DM after history re-use:
<dSpData2D:SpM extrapolated using coords
  <sparsity:sparsity for geom step 49
    nrows_g=34 nrows=6 sparsity=.1765 nnzs=204, refcount: 9>
  <dData2D:(temp array for extrapolation) n=204 m=1, refcount: 1>
refcount: 1>
No. of atoms with KB's overlaping orbs in proc 0. Max # of overlaps:      10      85
New grid distribution:   1
           1       1:   12    1:    6    1:    3
           2       1:   12    1:    6    4:    6
           3       1:   12    1:    6    7:    9
           4       1:   12    1:    6   10:   12
           5       1:   12    7:   12    1:    3
           6       1:   12    7:   12    4:    6
           7       1:   12    7:   12    7:    9
           8       1:   12    7:   12   10:   12

InitMesh: MESH =    24 x    24 x    24 =       13824
InitMesh: (bp) =    12 x    12 x    12 =        1728
InitMesh: Mesh cutoff (required, used) =    50.000    64.337 Ry
ExtMesh (bp) on 0 =    56 x    50 x    47 =      131600
New grid distribution:   2
           1       1:    6    7:   12    7:   12
           2       7:   12    1:    6    1:    6
           3       7:   12    1:    6    7:   12
           4       7:   12    7:   12    1:    6
           5       1:    6    1:    6    7:   12
           6       1:    6    1:    6    1:    6
           7       7:   12    7:   12    7:   12
           8       1:    6    7:   12    1:    6
New grid distribution:   3
           1       1:    6    7:   12    7:   12
           2       7:   12    1:    6    1:    6
           3       7:   12    1:    6    7:   12
           4       7:   12    7:   12    1:    6
           5       1:    6    1:    6    7:   12
           6       1:    6    1:    6    1:    6
           7       7:   12    7:   12    7:   12
           8       1:    6    7:   12    1:    6
Setting up quadratic distribution...
ExtMesh (bp) on 0 =    50 x    50 x    50 =      125000
PhiOnMesh: Number of (b)points on node 0 =                  216
PhiOnMesh: nlist on node 0 =                 4709

        iscf     Eharris(eV)        E_KS(eV)     FreeEng(eV)     dDmax    Ef(eV) dHmax(eV)
   scf:    1    -2956.438357    -2956.348078    -2956.348078  0.007802 -3.983732  0.073367
   scf:    2    -2956.331123    -2956.343484    -2956.343484  0.014382 -3.995096  0.159318
   scf:    3    -2956.350698    -2956.349002    -2956.349002  0.010099 -3.986717  0.005987
   scf:    4    -2956.349013    -2956.349008    -2956.349008  0.000102 -3.985934  0.004241
   scf:    5    -2956.349018    -2956.349013    -2956.349013  0.000165 -3.984677  0.001359
   scf:    6    -2956.349014    -2956.349014    -2956.349014  0.000063 -3.984199  0.000242

SCF Convergence by DM+H criterion
max |DM_out - DM_in|         :     0.0000632843
max |H_out - H_in|      (eV) :     0.0002415726
SCF cycle converged after 6 iterations

Using DM_out to compute the final energy and forces
No. of atoms with KB's overlaping orbs in proc 0. Max # of overlaps:      10      85

siesta: E_KS(eV) =            -2956.3490

siesta: Atomic forces (eV/Ang):
     1   -0.000000    0.000000   -0.000000
     2    0.000000   -0.000000   -0.000000
     3   -0.000001   -0.000001    0.000008
     4    0.000001    0.000001   -0.000008
     5   -1.534017    3.431024   -0.000001
     6   -0.000001   -2.058440    3.144506
     7    1.534018   -1.372583   -3.144516
     8    1.534017   -3.431024    0.000001
     9    0.000001    2.058440   -3.144506
    10   -1.534018    1.372583    3.144516
----------------------------------------
   Tot   -0.000000   -0.000000   -0.000000
----------------------------------------
   Max    3.431024
   Res    1.680782    sqrt( Sum f_i^2 / 3N )
----------------------------------------
   Max    3.431024    constrained

Stress tensor Voigt[x,y,z,yz,xz,xy] (kbar):      221.34      270.27      277.25       -8.00      -17.90      -27.34
(Free)E + p*V (eV/cell)    -2971.3663
Target enthalpy (eV/cell)    -2950.4894

siesta: Stress tensor (static) (eV/Ang**3):
         0.139745   -0.019564   -0.012807
        -0.019564    0.174755   -0.005726
        -0.012807   -0.005726    0.179754

siesta: Pressure (static):       -263.96336106  kBar

siesta: Stress tensor (total) (eV/Ang**3):
         0.138148   -0.017064   -0.011171
        -0.017064    0.168685   -0.004994
        -0.011171   -0.004994    0.173045

siesta: Pressure (total):       -256.28598290  kBar

siesta: E_kin PR =    2442.777 K

siesta: Temp_ion =     519.855 K

                     ====================================
                        Begin MD step =     50
                     ====================================

outcoor: Atomic coordinates (fractional):                   
    0.00000000   -0.00000000   -0.00000000   1       1  Mg
    0.50000000    0.50000000    0.50000000   1       2  Mg
    0.25000000    0.25000000    0.25000000   2       3  C
   -0.25000000   -0.25000000   -0.25000000   2       4  C
    0.57673076   -0.07673076    0.25000000   3       5  O
    0.25000000    0.57673076   -0.07673076   3       6  O
   -0.07673076    0.25000000    0.57673076   3       7  O
   -0.57673076    0.07673076   -0.25000000   3       8  O
   -0.25000000   -0.57673076    0.07673076   3       9  O
    0.07673076   -0.25000000   -0.57673076   3      10  O

outcell: Unit cell vectors (Ang):
        5.655843   -0.027150   -0.017773
        3.751115    4.233017   -0.017773
        3.751115    1.677130    3.886642

outcell: Cell vector modules (Ang)   :    5.655936    5.655936    5.655936
outcell: Cell angles (23,13,12) (deg):     48.7288     48.7288     48.7288
outcell: Cell volume (Ang**3)        :     93.7878
Gamma-point calculation with interaction between periodic images
Some features might not work optimally:
e.g. DM initialization from atomic data
<dSpData1D:S at geom step 50
  <sparsity:sparsity for geom step 50
    nrows_g=34 nrows=6 sparsity=.1765 nnzs=204, refcount: 7>
  <dData1D:(new from dSpData1D) n=204, refcount: 1>
refcount: 1>
new_DM -- step:    50
Re-using DM from previous geometries...
Number of DMs in history: 1
 DM extrapolation coefficients: 
1   1.00000
New DM after history re-use:
<dSpData2D:SpM extrapolated using coords
  <sparsity:sparsity for geom step 50
    nrows_g=34 nrows=6 sparsity=.1765 nnzs=204, refcount: 9>
  <dData2D:(temp array for extrapolation) n=204 m=1, refcount: 1>
refcount: 1>
No. of atoms with KB's overlaping orbs in proc 0. Max # of overlaps:      10      85
New grid distribution:   1
           1       1:   12    1:    6    1:    3
           2       1:   12    1:    6    4:    6
           3       1:   12    1:    6    7:    9
           4       1:   12    1:    6   10:   12
           5       1:   12    7:   12    1:    3
           6       1:   12    7:   12    4:    6
           7       1:   12    7:   12    7:    9
           8       1:   12    7:   12   10:   12

InitMesh: MESH =    24 x    24 x    24 =       13824
InitMesh: (bp) =    12 x    12 x    12 =        1728
InitMesh: Mesh cutoff (required, used) =    50.000    64.371 Ry
ExtMesh (bp) on 0 =    56 x    50 x    47 =      131600
New grid distribution:   2
           1       1:    6    7:   12    7:   12
           2       7:   12    1:    6    1:    6
           3       7:   12    1:    6    7:   12
           4       7:   12    7:   12    1:    6
           5       1:    6    1:    6    7:   12
           6       1:    6    1:    6    1:    6
           7       7:   12    7:   12    7:   12
           8       1:    6    7:   12    1:    6
New grid distribution:   3
           1       1:    6    7:   12    7:   12
           2       7:   12    1:    6    1:    6
           3       7:   12    1:    6    7:   12
           4       7:   12    7:   12    1:    6
           5       1:    6    1:    6    7:   12
           6       1:    6    1:    6    1:    6
           7       7:   12    7:   12    7:   12
           8       1:    6    7:   12    1:    6
Setting up quadratic distribution...
ExtMesh (bp) on 0 =    50 x    50 x    50 =      125000
PhiOnMesh: Number of (b)points on node 0 =                  216
PhiOnMesh: nlist on node 0 =                 4714

        iscf     Eharris(eV)        E_KS(eV)     FreeEng(eV)     dDmax    Ef(eV) dHmax(eV)
   scf:    1    -2956.369193    -2956.291369    -2956.291369  0.007147 -3.952053  0.066978
   scf:    2    -2956.277093    -2956.287493    -2956.287493  0.013177 -3.962363  0.146142
   scf:    3    -2956.293557    -2956.292136    -2956.292136  0.009274 -3.954737  0.005570
   scf:    4    -2956.292146    -2956.292141    -2956.292141  0.000090 -3.954048  0.003983
   scf:    5    -2956.292150    -2956.292146    -2956.292146  0.000146 -3.952935  0.001470
   scf:    6    -2956.292147    -2956.292146    -2956.292146  0.000068 -3.952419  0.000289

SCF Convergence by DM+H criterion
max |DM_out - DM_in|         :     0.0000681784
max |H_out - H_in|      (eV) :     0.0002889202
SCF cycle converged after 6 iterations

Using DM_out to compute the final energy and forces
No. of atoms with KB's overlaping orbs in proc 0. Max # of overlaps:      10      85

siesta: E_KS(eV) =            -2956.2921

siesta: Atomic forces (eV/Ang):
     1    0.000000   -0.000000    0.000000
     2   -0.000000    0.000000    0.000000
     3    0.000001    0.000000   -0.000004
     4   -0.000001   -0.000000    0.000004
     5   -1.564532    3.499273    0.000000
     6    0.000001   -2.099392    3.207064
     7    1.564530   -1.399883   -3.207058
     8    1.564532   -3.499273   -0.000000
     9   -0.000001    2.099392   -3.207064
    10   -1.564530    1.399883    3.207058
----------------------------------------
   Tot   -0.000000    0.000000   -0.000000
----------------------------------------
   Max    3.499273
   Res    1.714216    sqrt( Sum f_i^2 / 3N )
----------------------------------------
   Max    3.499273    constrained

Stress tensor Voigt[x,y,z,yz,xz,xy] (kbar):      220.37      272.56      280.01       -8.53      -19.09      -29.16
(Free)E + p*V (eV/cell)    -2971.3741
Target enthalpy (eV/cell)    -2950.4384

siesta: Stress tensor (static) (eV/Ang**3):
         0.138966   -0.020425   -0.013370
        -0.020425    0.175517   -0.005978
        -0.013370   -0.005978    0.180736

siesta: Pressure (static):       -264.47954634  kBar

siesta: Stress tensor (total) (eV/Ang**3):
         0.137545   -0.018200   -0.011914
        -0.018200    0.170115   -0.005327
        -0.011914   -0.005327    0.174766

siesta: Pressure (total):       -257.64695453  kBar

siesta: E_kin PR =    2690.909 K

siesta: Temp_ion =     457.684 K

outcell: Unit cell vectors (Ang):
        5.655843   -0.027150   -0.017773
        3.751115    4.233017   -0.017773
        3.751115    1.677130    3.886642

outcell: Cell vector modules (Ang)   :    5.655936    5.655936    5.655936
outcell: Cell angles (23,13,12) (deg):     48.7288     48.7288     48.7288
outcell: Cell volume (Ang**3)        :     93.7878

siesta: Program's energy decomposition (eV):
siesta: Ebs     =      -574.538214
siesta: Eions   =      5228.674091
siesta: Ena     =      1104.811660
siesta: Ekin    =      2234.318744
siesta: Enl     =      -343.152104
siesta: Eso     =         0.000000
siesta: Edftu   =         0.000000
siesta: DEna    =       -38.232391
siesta: DUscf   =         6.719467
siesta: DUext   =         0.000000
siesta: Exc     =      -692.083431
siesta: eta*DQ  =         0.000000
siesta: Emadel  =         0.000000
siesta: Emeta   =         0.000000
siesta: Emolmec =         0.000000
siesta: Ekinion =         0.532422
siesta: Eharris =     -2955.759725
siesta: Etot    =     -2955.759725
siesta: FreeEng =     -2955.759725

siesta: Final energy (eV):
siesta:  Band Struct. =    -574.538214
siesta:       Kinetic =    2234.318744
siesta:       Hartree =     861.033900
siesta:       Edftu   =       0.000000
siesta:       Eso     =       0.000000
siesta:    Ext. field =       0.000000
siesta:   Exch.-corr. =    -692.083431
siesta:  Ion-electron =   -3624.087956
siesta:       Ion-ion =   -1735.473403
siesta:       Ekinion =       0.532422
siesta:         Total =   -2955.759725
siesta:         Fermi =      -3.952419

siesta: Atomic forces (eV/Ang):
siesta:      1    0.000000   -0.000000    0.000000
siesta:      2   -0.000000    0.000000    0.000000
siesta:      3    0.000001    0.000000   -0.000004
siesta:      4   -0.000001   -0.000000    0.000004
siesta:      5   -1.564532    3.499273    0.000000
siesta:      6    0.000001   -2.099392    3.207064
siesta:      7    1.564530   -1.399883   -3.207058
siesta:      8    1.564532   -3.499273   -0.000000
siesta:      9   -0.000001    2.099392   -3.207064
siesta:     10   -1.564530    1.399883    3.207058
siesta: ----------------------------------------
siesta:    Tot   -0.000000    0.000000   -0.000000

siesta: Stress tensor (static) (eV/Ang**3):
siesta:     0.138966   -0.020425   -0.013370
siesta:    -0.020425    0.175517   -0.005978
siesta:    -0.013370   -0.005978    0.180736

siesta: Cell volume =         93.787778 Ang**3

siesta: Pressure (static):
siesta:                Solid            Molecule  Units
siesta:          -0.00179786         -0.00044048  Ry/Bohr**3
siesta:          -0.16507336         -0.04044316  eV/Ang**3
siesta:        -264.47954634        -64.79778541  kBar
(Free)E+ p_basis*V_orbitals  =       -2955.097849
(Free)Eharris+ p_basis*V_orbitals  =       -2955.097850

cite: Please see "md_pr.bib" for an exhaustive BiBTeX file.
cite: Please clearly indicate Siesta version in published work: v4.1-b4-351
cite: This calculation has made use of the following articles
cite: which are encouraged to be cited in a published work.
        Primary SIESTA paper
          DOI: www.doi.org/10.1088/0953-8984/14/11/302

>> End of run:  22-JAN-2021  23:13:16
Job completed
