Siesta Version: siesta-3.2
Architecture  : SIESTA_ARCH
Compiler flags: FFLAGS
PARALLEL version
NetCDF support

* Running on    4 nodes in parallel
>> Start of run:  24-MAR-2013  18:29:27

                           ***********************       
                           *  WELCOME TO SIESTA  *       
                           ***********************       

reinit: Reading from standard input
************************** Dump of input data file ****************************
#
# MgCO3 in primitive cell. SZ. Parrinello-Rahman. Harris
#
SystemName	MgCo3 R-3c Harris -- SZ, 50 R -- PR at 10 Gpa
SystemLabel	md_pr
NumberOfSpecies		3
NumberOfAtoms	       10
%block ChemicalSpeciesLabel
      1      12     Mg
      2       6     C
      3       8     O
%endblock ChemicalSpeciesLabel
PAO.BasisSize  SZ
Diag.Divide-and-Conquer F
# Rhombohedral primitive cell
# (HEX 3-fold cell had A=4.635 and C=15.023, so alpha=48.179 degrees
#  and a=5.67783 Ang)
LatticeConstant     5.67783 Ang
%block LatticeParameters
1.0 1.0 1.0 48.179 48.179 48.179
%endblock LatticeParameters
AtomicCoordinatesFormat    Fractional
%block AtomicCoordinatesAndAtomicSpecies
  0.0         0.0         0.0      1
  0.5         0.5         0.5      1
  0.25        0.25        0.25     2
 -0.25       -0.25       -0.25     2
  0.5274     -0.0274      0.25     3
  0.25        0.5274     -0.0274   3
 -0.0274      0.25        0.5274   3
 -0.5274      0.0274     -0.25     3
 -0.25       -0.5274      0.0274   3
  0.0274     -0.25       -0.5274   3
%endblock AtomicCoordinatesAndAtomicSpecies
kgrid_cutoff 2.0 Ang
Solution.Method       diagon
MeshCutoff             50 Ry
DM.NumberBroyden       4
DM.UseSaveDM           T
DM.MixingWeight        0.1         # New DM amount for next SCF cycle
DM.Tolerance           1.d-3       # Tolerance in maximum difference
                                   # between input and output DM
MaxSCFIterations       20
WriteCoorStep      .true.
WriteForces        .true.
HarrisFunctional T
WriteMDHistory     .true.
MD.UseSaveXV       T
#####MD.Initial.temperature 300 K
MD.TypeOfRun         ParrinelloRahman
MD.Target-pressure   10.0 GPa
MD.Initial.Time.Step      1
MD.Final.Time.Step        50
MD.Length.Time.Step       0.3 fs
************************** End of input data file *****************************

reinit: -----------------------------------------------------------------------
reinit: System Name: MgCo3 R-3c Harris -- SZ, 50 R -- PR at 10 Gpa
reinit: -----------------------------------------------------------------------
reinit: System Label: md_pr                                                       
reinit: -----------------------------------------------------------------------

initatom: Reading input for the pseudopotentials and atomic orbitals ----------
 Species number:            1  Label: Mg Atomic number:          12
 Species number:            2  Label: C Atomic number:           6
 Species number:            3  Label: O Atomic number:           8
Ground state valence configuration:   3s02
Reading pseudopotential information in formatted form from Mg.psf

Valence configuration for pseudopotential generation:
3s( 2.00) rc: 2.59
3p( 0.00) rc: 2.59
3d( 0.00) rc: 2.59
4f( 0.00) rc: 2.59
Ground state valence configuration:   2s02  2p02
Reading pseudopotential information in formatted form from C.psf

Valence configuration for pseudopotential generation:
2s( 2.00) rc: 1.49
2p( 2.00) rc: 1.52
3d( 0.00) rc: 1.58
Ground state valence configuration:   2s02  2p04
Reading pseudopotential information in formatted form from O.psf

Valence configuration for pseudopotential generation:
2s( 2.00) rc: 1.14
2p( 4.00) rc: 1.14
3d( 0.00) rc: 1.14
4f( 0.00) rc: 1.14
For Mg, standard SIESTA heuristics set lmxkb to 1
 (one more than the basis l, including polarization orbitals).
Use PS.lmax or PS.KBprojectors blocks to override.
For C, standard SIESTA heuristics set lmxkb to 2
 (one more than the basis l, including polarization orbitals).
Use PS.lmax or PS.KBprojectors blocks to override.
For O, standard SIESTA heuristics set lmxkb to 2
 (one more than the basis l, including polarization orbitals).
Use PS.lmax or PS.KBprojectors blocks to override.

<basis_specs>
===============================================================================
Mg                   Z=  12    Mass=  24.310        Charge= 0.17977+309
Lmxo=0 Lmxkb= 1    BasisType=split      Semic=F
L=0  Nsemic=0  Cnfigmx=3
          n=1  nzeta=1  polorb=0
            splnorm:   0.15000    
               vcte:    0.0000    
               rinn:    0.0000    
                rcs:    0.0000    
            lambdas:    1.0000    
-------------------------------------------------------------------------------
L=0  Nkbl=1  erefs: 0.17977+309
L=1  Nkbl=1  erefs: 0.17977+309
===============================================================================
</basis_specs>

atom: Called for Mg                    (Z =  12)

read_vps: Pseudopotential generation method:
read_vps: ATM3      Troullier-Martins                       
Total valence charge:    2.00000

xc_check: Exchange-correlation functional:
xc_check: Ceperley-Alder
V l=0 = -2*Zval/r beyond r=  3.5878
V l=1 = -2*Zval/r beyond r=  3.5878
All V_l potentials equal beyond r=  2.5600
This should be close to max(r_c) in ps generation
All pots = -2*Zval/r beyond r=  3.5878
Using large-core scheme for Vlocal

atom: Estimated core radius    3.58779

atom: Including non-local core corrections could be a good idea
atom: Maximum radius for 4*pi*r*r*local-pseudopot. charge    3.91588
atom: Maximum radius for r*vlocal+2*Zval:    3.63292
GHOST: No ghost state for L =  0
GHOST: No ghost state for L =  1

KBgen: Kleinman-Bylander projectors: 
   l= 0   rc=  2.657845   el= -0.351328   Ekb=  2.184400   kbcos=  0.257081
   l= 1   rc=  2.657845   el= -0.101748   Ekb=  0.525536   kbcos=  0.270508

KBgen: Total number of  Kleinman-Bylander projectors:    4
atom: -------------------------------------------------------------------------

atom: SANKEY-TYPE ORBITALS:

SPLIT: Orbitals with angular momentum L= 0

SPLIT: Basis orbitals for state 3s

SPLIT: PAO cut-off radius determined from an
SPLIT: energy shift=  0.020000 Ry

   izeta = 1
                 lambda =    1.000000
                     rc =    6.619780
                 energy =   -0.332103
                kinetic =    0.289627
    potential(screened) =   -0.621729
       potential(ionic) =   -1.387191
atom: Total number of Sankey-type orbitals:  1

atm_pop: Valence configuration (for local Pseudopot. screening):
 3s( 2.00)                                                            
Vna: chval, zval:    2.00000   2.00000

Vna:  Cut-off radius for the neutral-atom potential:   6.619780

atom: _________________________________________________________________________

<basis_specs>
===============================================================================
C                    Z=   6    Mass=  12.010        Charge= 0.17977+309
Lmxo=1 Lmxkb= 2    BasisType=split      Semic=F
L=0  Nsemic=0  Cnfigmx=2
          n=1  nzeta=1  polorb=0
            splnorm:   0.15000    
               vcte:    0.0000    
               rinn:    0.0000    
                rcs:    0.0000    
            lambdas:    1.0000    
L=1  Nsemic=0  Cnfigmx=2
          n=1  nzeta=1  polorb=0
            splnorm:   0.15000    
               vcte:    0.0000    
               rinn:    0.0000    
                rcs:    0.0000    
            lambdas:    1.0000    
-------------------------------------------------------------------------------
L=0  Nkbl=1  erefs: 0.17977+309
L=1  Nkbl=1  erefs: 0.17977+309
L=2  Nkbl=1  erefs: 0.17977+309
===============================================================================
</basis_specs>

atom: Called for C                     (Z =   6)

read_vps: Pseudopotential generation method:
read_vps: ATM3      Troullier-Martins                       
Total valence charge:    4.00000

xc_check: Exchange-correlation functional:
xc_check: Ceperley-Alder
V l=0 = -2*Zval/r beyond r=  1.4666
V l=1 = -2*Zval/r beyond r=  1.5038
V l=2 = -2*Zval/r beyond r=  1.5612
All V_l potentials equal beyond r=  1.5612
This should be close to max(r_c) in ps generation
All pots = -2*Zval/r beyond r=  1.5612

VLOCAL1: 99.0% of the norm of Vloc inside     17.809 Ry
VLOCAL1: 99.9% of the norm of Vloc inside     40.586 Ry
atom: Maximum radius for 4*pi*r*r*local-pseudopot. charge    1.88329
atom: Maximum radius for r*vlocal+2*Zval:    1.62091
GHOST: No ghost state for L =  0
GHOST: No ghost state for L =  1
GHOST: No ghost state for L =  2

KBgen: Kleinman-Bylander projectors: 
   l= 0   rc=  1.747182   el= -1.001947   Ekb=  5.181700   kbcos=  0.300603
   l= 1   rc=  1.747182   el= -0.398598   Ekb= -4.328763   kbcos= -0.367074
   l= 2   rc=  1.955272   el=  0.002326   Ekb= -1.016175   kbcos= -0.009979

KBgen: Total number of  Kleinman-Bylander projectors:    9
atom: -------------------------------------------------------------------------

atom: SANKEY-TYPE ORBITALS:

SPLIT: Orbitals with angular momentum L= 0

SPLIT: Basis orbitals for state 2s

SPLIT: PAO cut-off radius determined from an
SPLIT: energy shift=  0.020000 Ry

   izeta = 1
                 lambda =    1.000000
                     rc =    4.191849
                 energy =   -0.983897
                kinetic =    0.886956
    potential(screened) =   -1.870853
       potential(ionic) =   -5.479661

SPLIT: Orbitals with angular momentum L= 1

SPLIT: Basis orbitals for state 2p

SPLIT: PAO cut-off radius determined from an
SPLIT: energy shift=  0.020000 Ry

   izeta = 1
                 lambda =    1.000000
                     rc =    4.870301
                 energy =   -0.379093
                kinetic =    2.545357
    potential(screened) =   -2.924450
       potential(ionic) =   -6.433151
atom: Total number of Sankey-type orbitals:  4

atm_pop: Valence configuration (for local Pseudopot. screening):
 2s( 2.00)                                                            
 2p( 2.00)                                                            
Vna: chval, zval:    4.00000   4.00000

Vna:  Cut-off radius for the neutral-atom potential:   4.870301

atom: _________________________________________________________________________

<basis_specs>
===============================================================================
O                    Z=   8    Mass=  16.000        Charge= 0.17977+309
Lmxo=1 Lmxkb= 2    BasisType=split      Semic=F
L=0  Nsemic=0  Cnfigmx=2
          n=1  nzeta=1  polorb=0
            splnorm:   0.15000    
               vcte:    0.0000    
               rinn:    0.0000    
                rcs:    0.0000    
            lambdas:    1.0000    
L=1  Nsemic=0  Cnfigmx=2
          n=1  nzeta=1  polorb=0
            splnorm:   0.15000    
               vcte:    0.0000    
               rinn:    0.0000    
                rcs:    0.0000    
            lambdas:    1.0000    
-------------------------------------------------------------------------------
L=0  Nkbl=1  erefs: 0.17977+309
L=1  Nkbl=1  erefs: 0.17977+309
L=2  Nkbl=1  erefs: 0.17977+309
===============================================================================
</basis_specs>

atom: Called for O                     (Z =   8)

read_vps: Pseudopotential generation method:
read_vps: ATM3      Troullier-Martins                       
Total valence charge:    6.00000

xc_check: Exchange-correlation functional:
xc_check: Ceperley-Alder
V l=0 = -2*Zval/r beyond r=  1.1278
V l=1 = -2*Zval/r beyond r=  1.1278
V l=2 = -2*Zval/r beyond r=  1.1278
All V_l potentials equal beyond r=  1.1278
This should be close to max(r_c) in ps generation
All pots = -2*Zval/r beyond r=  1.1278

VLOCAL1: 99.0% of the norm of Vloc inside     34.126 Ry
VLOCAL1: 99.9% of the norm of Vloc inside     77.774 Ry
atom: Maximum radius for 4*pi*r*r*local-pseudopot. charge    1.37759
atom: Maximum radius for r*vlocal+2*Zval:    1.18566
GHOST: No ghost state for L =  0
GHOST: No ghost state for L =  1
GHOST: No ghost state for L =  2

KBgen: Kleinman-Bylander projectors: 
   l= 0   rc=  1.294105   el= -1.742414   Ekb=  9.135903   kbcos=  0.326910
   l= 1   rc=  1.294105   el= -0.676589   Ekb= -8.124878   kbcos= -0.395047
   l= 2   rc=  1.448233   el=  0.002386   Ekb= -2.039267   kbcos= -0.003484

KBgen: Total number of  Kleinman-Bylander projectors:    9
atom: -------------------------------------------------------------------------

atom: SANKEY-TYPE ORBITALS:

SPLIT: Orbitals with angular momentum L= 0

SPLIT: Basis orbitals for state 2s

SPLIT: PAO cut-off radius determined from an
SPLIT: energy shift=  0.020000 Ry

   izeta = 1
                 lambda =    1.000000
                     rc =    3.305093
                 energy =   -1.723766
                kinetic =    1.614911
    potential(screened) =   -3.338677
       potential(ionic) =  -11.304675

SPLIT: Orbitals with angular momentum L= 1

SPLIT: Basis orbitals for state 2p

SPLIT: PAO cut-off radius determined from an
SPLIT: energy shift=  0.020000 Ry

   izeta = 1
                 lambda =    1.000000
                     rc =    3.937239
                 energy =   -0.658841
                kinetic =    5.005986
    potential(screened) =   -5.664827
       potential(ionic) =  -13.452360
atom: Total number of Sankey-type orbitals:  4

atm_pop: Valence configuration (for local Pseudopot. screening):
 2s( 2.00)                                                            
 2p( 4.00)                                                            
Vna: chval, zval:    6.00000   6.00000

Vna:  Cut-off radius for the neutral-atom potential:   3.937239

atom: _________________________________________________________________________

prinput: Basis input ----------------------------------------------------------

PAO.BasisType split     

%block ChemicalSpeciesLabel
    1   12 Mg                      # Species index, atomic number, species label
    2    6 C                       # Species index, atomic number, species label
    3    8 O                       # Species index, atomic number, species label
%endblock ChemicalSpeciesLabel

%block PAO.Basis                 # Define Basis set
Mg                    1                    # Species label, number of l-shells
 n=3   0   1                         # n, l, Nzeta 
   6.620   
   1.000   
C                     2                    # Species label, number of l-shells
 n=2   0   1                         # n, l, Nzeta 
   4.192   
   1.000   
 n=2   1   1                         # n, l, Nzeta 
   4.870   
   1.000   
O                     2                    # Species label, number of l-shells
 n=2   0   1                         # n, l, Nzeta 
   3.305   
   1.000   
 n=2   1   1                         # n, l, Nzeta 
   3.937   
   1.000   
%endblock PAO.Basis

prinput: ----------------------------------------------------------------------

Dumping basis to NetCDF file Mg.ion.nc
Dumping basis to NetCDF file C.ion.nc
Dumping basis to NetCDF file O.ion.nc
coor:   Atomic-coordinates input format  =     Fractional

siesta: WARNING: XV file not found

siesta: Atomic coordinates (Bohr) and species
siesta:      0.00000   0.00000   0.00000  1        1
siesta:     12.51930   5.59740   3.66414  1        2
siesta:      6.25965   2.79870   1.83207  2        3
siesta:     -6.25965  -2.79870  -1.83207  2        4
siesta:      7.25136   0.58061   1.83207  3        5
siesta:      6.25965   4.12944  -0.20079  3        6
siesta:      5.26794   3.68605   3.86493  3        7
siesta:     -7.25136  -0.58061  -1.83207  3        8
siesta:     -6.25965  -4.12944   0.20079  3        9
siesta:     -5.26794  -3.68605  -3.86493  3       10

siesta: System type = bulk      

initatomlists: Number of atoms, orbitals, and projectors:     10    34    80

siesta: ******************** Simulation parameters ****************************
siesta:
siesta: The following are some of the parameters of the simulation.
siesta: A complete list of the parameters used, including default values,
siesta: can be found in file out.fdf
siesta:
redata: Non-Collinear-spin run           =     F
redata: SpinPolarized (Up/Down) run      =     F
redata: Number of spin components        =     1
redata: Long output                      =     F
redata: Number of Atomic Species         =        3
redata: Charge density info will appear in .RHO file
redata: Write Mulliken Pop.              =     NO
redata: Mesh Cutoff                      =    50.0000  Ry
redata: Net charge of the system         =     0.0000 |e|
redata: Max. number of SCF Iter          =       20
redata: Broyden mixing with     4 saved histories.
redata: Mix DM in first SCF step ?       =     F
redata: Write Pulay info on disk?        =     F
redata: Discard 1st Pulay DM after  kick =     F
redata: New DM Mixing Weight             =     0.1000
redata: New DM Occupancy tolerance       = 0.000000000001
redata: No kicks to SCF
redata: DM Mixing Weight for Kicks       =     0.5000
redata: DM Tolerance for SCF             =     0.001000
redata: Require Energy convergence for SCF =     F
redata: DM Energy tolerance for SCF      =     0.000100 eV
redata: Require Harris convergence for SCF =     F
redata: DM Harris energy tolerance for SCF =     0.000100 eV
redata: Using Saved Data (generic)   =     F
redata: Use continuation files for DM    =     T
redata: Neglect nonoverlap interactions  =     F
redata: Method of Calculation            =     Diagonalization
redata: Divide and Conquer               =     F
redata: Electronic Temperature           =     0.0019  Ry
redata: Fix the spin of the system       =     F
redata: Dynamics option                  =     Parrinello-Rahman MD run
redata: Initial MD time step             =        1
redata:   Final MD time step             =       50
redata: Length of MD time step           =     0.3000  fs
redata: Initial Temperature of MD run    =     0.0000  K
redata: Perform a MD quench              =     F
redata: Parrinello-Rahman mass           =   100.0000  Ry/fs**2
redata: Target Pressure                  =     0.0007  Ry/Bohr**3
redata: ***********************************************************************
Total number of electrons:    48.000000
Total ionic charge:    48.000000

* ProcessorY, Blocksize:    2   9

 Kpoints in:            1 . Kpoints trimmed:            1

siesta: k-grid: Number of k-points =     1
siesta: k-grid: Cutoff (effective) =     2.317 Ang
siesta: k-grid: Supercell and displacements
siesta: k-grid:    1   0   0      0.000
siesta: k-grid:    0   1   0      0.000
siesta: k-grid:    0   0   1      0.000

* Maximum dynamic memory allocated =     3 MB

siesta:                 ==============================
                            Begin MD step =      1
                        ==============================

outcoor: Atomic coordinates (fractional):                   
    0.00000000    0.00000000    0.00000000   1       1  Mg
    0.50000000    0.50000000    0.50000000   1       2  Mg
    0.25000000    0.25000000    0.25000000   2       3  C
   -0.25000000   -0.25000000   -0.25000000   2       4  C
    0.52740000   -0.02740000    0.25000000   3       5  O
    0.25000000    0.52740000   -0.02740000   3       6  O
   -0.02740000    0.25000000    0.52740000   3       7  O
   -0.52740000    0.02740000   -0.25000000   3       8  O
   -0.25000000   -0.52740000    0.02740000   3       9  O
    0.02740000   -0.25000000   -0.52740000   3      10  O

outcell: Unit cell vectors (Ang):
        5.677830    0.000000    0.000000
        3.786009    4.231299    0.000000
        3.786009    1.692731    3.877957

outcell: Cell vector modules (Ang)   :    5.677830    5.677830    5.677830
outcell: Cell angles (23,13,12) (deg):     48.1790     48.1790     48.1790
outcell: Cell volume (Ang**3)        :     93.1663
 Folding of H and S is implicitly performed
New_DM. Step:     1
Initializing Density Matrix...

InitMesh: MESH =    24 x    24 x    24 =       13824
InitMesh: Mesh cutoff (required, used) =    50.000    63.482 Ry

* Maximum dynamic memory allocated =     3 MB

stepf: Fermi-Dirac step function
 Broyden: No of relevant DM elements:         1156
 maxit for broyden:            4
 cycle on maxit:  T
 variable weight:  T
 initial alpha:   0.10000000000000001     

siesta: Program's energy decomposition (eV):
siesta: Ebs     =      -718.671436
siesta: Eions   =      5228.674091
siesta: Ena     =      1092.429444
siesta: Ekin    =      2069.792750
siesta: Enl     =      -254.036133
siesta: DEna    =        15.961142
siesta: DUscf   =         0.158223
siesta: DUext   =         0.000000
siesta: Exc     =      -679.402762
siesta: eta*DQ  =         0.000000
siesta: Emadel  =         0.000000
siesta: Emeta   =         0.000000
siesta: Emolmec =         0.000000
siesta: Ekinion =         0.000000
siesta: Eharris =     -2966.596225
siesta: Etot    =     -2983.771427
siesta: FreeEng =     -2983.771427

siesta: Eharris(eV) =   -2966.596225


siesta: Eharris(eV) =   -2966.596225

timer: Routine,Calls,Time,% = IterSCF        1       0.968  35.91
elaps: Routine,Calls,Wall,% = IterSCF        1       0.242  35.64

siesta: E_KS - E_eggbox =     -2945.6640

siesta: Atomic forces (eV/Ang):
     1   -0.000000   -0.000000   -0.000000
     2   -0.000000   -0.000000    0.000000
     3    0.000001   -0.000002   -0.000005
     4   -0.000002    0.000002    0.000006
     5    2.998817   -6.707233   -0.000007
     6   -0.000012    4.024018   -6.147139
     7   -2.998821    2.683236    6.147162
     8   -2.998814    6.707234    0.000008
     9    0.000012   -4.024016    6.147141
    10    2.998822   -2.683237   -6.147164
----------------------------------------
   Tot    0.000002    0.000001    0.000001
----------------------------------------
   Max    6.707234
   Res    3.285729    sqrt( Sum f_i^2 / 3N )
----------------------------------------
   Max    6.707234    constrained

Stress-tensor-Voigt (kbar):      720.98      465.34      428.84      142.85       41.81       93.51
(Free)E + p*V (eV/cell)    -2976.9707
Target enthalpy (eV/cell)    -2939.8491

siesta: Stress tensor (static) (eV/Ang**3):
         0.449996    0.089162    0.058367
         0.089162    0.290438    0.026096
         0.058367    0.026096    0.267656

siesta: Pressure (static):       -538.38529892  kBar

siesta: Stress tensor (total) (eV/Ang**3):
         0.449996    0.089162    0.058367
         0.089162    0.290438    0.026096
         0.058367    0.026096    0.267656

siesta: Pressure (total):       -538.38529892  kBar

siesta: E_kin PR =       5.259 K

siesta: Temp_ion =       0.000 K

* Maximum dynamic memory allocated =     3 MB

siesta:                 ==============================
                            Begin MD step =      2
                        ==============================

outcoor: Atomic coordinates (fractional):                   
   -0.00000000   -0.00000000   -0.00000000   1       1  Mg
    0.50000000    0.50000000    0.50000000   1       2  Mg
    0.25000000    0.25000000    0.25000000   2       3  C
   -0.25000000   -0.25000000   -0.25000000   2       4  C
    0.52744271   -0.02744271    0.25000000   3       5  O
    0.25000000    0.52744271   -0.02744271   3       6  O
   -0.02744271    0.25000000    0.52744271   3       7  O
   -0.52744271    0.02744271   -0.25000000   3       8  O
   -0.25000000   -0.52744271    0.02744271   3       9  O
    0.02744271   -0.25000000   -0.52744271   3      10  O

outcell: Unit cell vectors (Ang):
        5.677709    0.000074    0.000048
        3.785983    4.231159    0.000048
        3.785983    1.692720    3.877810

outcell: Cell vector modules (Ang)   :    5.677709    5.677709    5.677709
outcell: Cell angles (23,13,12) (deg):     48.1775     48.1775     48.1775
outcell: Cell volume (Ang**3)        :     93.1558
 Folding of H and S is implicitly performed
New_DM. Step:     2
Initializing Density Matrix...

InitMesh: MESH =    24 x    24 x    24 =       13824
InitMesh: Mesh cutoff (required, used) =    50.000    63.484 Ry

siesta: Eharris(eV) =   -2966.604744


siesta: Eharris(eV) =   -2966.604744


siesta: Atomic forces (eV/Ang):
     1    0.000000    0.000000    0.000000
     2   -0.000000   -0.000000   -0.000000
     3    0.000000    0.000002    0.000002
     4   -0.000001   -0.000003   -0.000001
     5    2.995554   -6.699934   -0.000006
     6   -0.000006    4.019631   -6.140439
     7   -2.995559    2.680310    6.140451
     8   -2.995554    6.699933    0.000004
     9    0.000006   -4.019630    6.140443
    10    2.995556   -2.680306   -6.140454
----------------------------------------
   Tot   -0.000002    0.000003   -0.000000
----------------------------------------
   Max    6.699934
   Res    3.282148    sqrt( Sum f_i^2 / 3N )
----------------------------------------
   Max    6.699934    constrained

Stress-tensor-Voigt (kbar):      720.84      465.32      428.84      142.78       41.79       93.47
(Free)E + p*V (eV/cell)    -2976.9674
Target enthalpy (eV/cell)    -2939.8531

siesta: Stress tensor (static) (eV/Ang**3):
         0.449905    0.089117    0.058337
         0.089117    0.290428    0.026083
         0.058337    0.026083    0.267658

siesta: Pressure (static):       -538.33216784  kBar

siesta: Stress tensor (total) (eV/Ang**3):
         0.449905    0.089117    0.058337
         0.089117    0.290428    0.026083
         0.058337    0.026083    0.267658

siesta: Pressure (total):       -538.33216784  kBar

siesta: E_kin PR =      47.320 K

siesta: Temp_ion =       7.493 K

* Maximum dynamic memory allocated =     3 MB

siesta:                 ==============================
                            Begin MD step =      3
                        ==============================

outcoor: Atomic coordinates (fractional):                   
    0.00000000   -0.00000000    0.00000000   1       1  Mg
    0.50000000    0.50000000    0.50000000   1       2  Mg
    0.25000000    0.25000000    0.25000000   2       3  C
   -0.25000000   -0.25000000   -0.25000000   2       4  C
    0.52757075   -0.02757075    0.25000000   3       5  O
    0.25000000    0.52757075   -0.02757075   3       6  O
   -0.02757075    0.25000000    0.52757075   3       7  O
   -0.52757075    0.02757075   -0.25000000   3       8  O
   -0.25000000   -0.52757075    0.02757075   3       9  O
    0.02757075   -0.25000000   -0.52757075   3      10  O

outcell: Unit cell vectors (Ang):
        5.677467    0.000220    0.000144
        3.785931    4.230881    0.000144
        3.785931    1.692696    3.877516

outcell: Cell vector modules (Ang)   :    5.677467    5.677467    5.677467
outcell: Cell angles (23,13,12) (deg):     48.1745     48.1745     48.1745
outcell: Cell volume (Ang**3)        :     93.1346
 Folding of H and S is implicitly performed
New_DM. Step:     3
Initializing Density Matrix...

InitMesh: MESH =    24 x    24 x    24 =       13824
InitMesh: Mesh cutoff (required, used) =    50.000    63.487 Ry

siesta: Eharris(eV) =   -2966.630700


siesta: Eharris(eV) =   -2966.630700


siesta: Atomic forces (eV/Ang):
     1    0.000000   -0.000000    0.000000
     2   -0.000000    0.000000    0.000000
     3    0.000001    0.000002   -0.000004
     4   -0.000001   -0.000003    0.000004
     5    2.984218   -6.674604    0.000008
     6   -0.000019    4.004412   -6.117192
     7   -2.984207    2.670163    6.117212
     8   -2.984218    6.674604   -0.000007
     9    0.000022   -4.004413    6.117188
    10    2.984211   -2.670168   -6.117214
----------------------------------------
   Tot    0.000006   -0.000007   -0.000004
----------------------------------------
   Max    6.674604
   Res    3.269728    sqrt( Sum f_i^2 / 3N )
----------------------------------------
   Max    6.674604    constrained

Stress-tensor-Voigt (kbar):      721.17      466.44      430.07      142.34       41.66       93.18
(Free)E + p*V (eV/cell)    -2977.0239
Target enthalpy (eV/cell)    -2939.8662

siesta: Stress tensor (static) (eV/Ang**3):
         0.450132    0.088811    0.058137
         0.088811    0.291203    0.025993
         0.058137    0.025993    0.268511

siesta: Pressure (static):       -539.32274498  kBar

siesta: Stress tensor (total) (eV/Ang**3):
         0.450111    0.088843    0.058158
         0.088843    0.291124    0.026002
         0.058158    0.026002    0.268424

siesta: Pressure (total):       -539.22351301  kBar

siesta: E_kin PR =     131.501 K

siesta: Temp_ion =      29.904 K

* Maximum dynamic memory allocated =     3 MB

siesta:                 ==============================
                            Begin MD step =      4
                        ==============================

outcoor: Atomic coordinates (fractional):                   
    0.00000000   -0.00000000    0.00000000   1       1  Mg
    0.50000000    0.50000000    0.50000000   1       2  Mg
    0.25000000    0.25000000    0.25000000   2       3  C
   -0.25000000   -0.25000000   -0.25000000   2       4  C
    0.52778384   -0.02778384    0.25000000   3       5  O
    0.25000000    0.52778384   -0.02778384   3       6  O
   -0.02778384    0.25000000    0.52778384   3       7  O
   -0.52778384    0.02778384   -0.25000000   3       8  O
   -0.25000000   -0.52778384    0.02778384   3       9  O
    0.02778384   -0.25000000   -0.52778384   3      10  O

outcell: Unit cell vectors (Ang):
        5.677103    0.000441    0.000289
        3.785853    4.230463    0.000289
        3.785853    1.692662    3.877075

outcell: Cell vector modules (Ang)   :    5.677103    5.677103    5.677103
outcell: Cell angles (23,13,12) (deg):     48.1701     48.1701     48.1701
outcell: Cell volume (Ang**3)        :     93.1028
 Folding of H and S is implicitly performed
New_DM. Step:     4
Initializing Density Matrix...

InitMesh: MESH =    24 x    24 x    24 =       13824
InitMesh: Mesh cutoff (required, used) =    50.000    63.492 Ry

siesta: Eharris(eV) =   -2966.673905


siesta: Eharris(eV) =   -2966.673905


siesta: Atomic forces (eV/Ang):
     1    0.000000    0.000000    0.000000
     2   -0.000000    0.000000   -0.000000
     3    0.000000   -0.000002    0.000005
     4    0.000000    0.000001   -0.000005
     5    2.964997   -6.631569    0.000010
     6    0.000003    3.978625   -6.077797
     7   -2.964992    2.652971    6.077792
     8   -2.964994    6.631573   -0.000010
     9   -0.000003   -3.978626    6.077793
    10    2.964992   -2.652970   -6.077790
----------------------------------------
   Tot    0.000004    0.000004   -0.000001
----------------------------------------
   Max    6.631573
   Res    3.248661    sqrt( Sum f_i^2 / 3N )
----------------------------------------
   Max    6.631573    constrained

Stress-tensor-Voigt (kbar):      722.05      468.69      432.51      141.58       41.44       92.68
(Free)E + p*V (eV/cell)    -2977.1415
Target enthalpy (eV/cell)    -2939.8883

siesta: Stress tensor (static) (eV/Ang**3):
         0.450748    0.088238    0.057762
         0.088238    0.292843    0.025825
         0.057762    0.025825    0.270298

siesta: Pressure (static):       -541.48190918  kBar

siesta: Stress tensor (total) (eV/Ang**3):
         0.450665    0.088367    0.057846
         0.088367    0.292530    0.025863
         0.057846    0.025863    0.269951

siesta: Pressure (total):       -541.08580273  kBar

siesta: E_kin PR =     258.163 K

siesta: Temp_ion =      67.015 K

* Maximum dynamic memory allocated =     3 MB

siesta:                 ==============================
                            Begin MD step =      5
                        ==============================

outcoor: Atomic coordinates (fractional):                   
    0.00000000   -0.00000000    0.00000000   1       1  Mg
    0.50000000    0.50000000    0.50000000   1       2  Mg
    0.25000000    0.25000000    0.25000000   2       3  C
   -0.25000000   -0.25000000   -0.25000000   2       4  C
    0.52808149   -0.02808149    0.25000000   3       5  O
    0.25000000    0.52808149   -0.02808149   3       6  O
   -0.02808149    0.25000000    0.52808149   3       7  O
   -0.52808149    0.02808149   -0.25000000   3       8  O
   -0.25000000   -0.52808149    0.02808149   3       9  O
    0.02808149   -0.25000000   -0.52808149   3      10  O

outcell: Unit cell vectors (Ang):
        5.676619    0.000736    0.000482
        3.785750    4.229905    0.000482
        3.785750    1.692615    3.876487

outcell: Cell vector modules (Ang)   :    5.676619    5.676619    5.676619
outcell: Cell angles (23,13,12) (deg):     48.1641     48.1641     48.1641
outcell: Cell volume (Ang**3)        :     93.0604
 Folding of H and S is implicitly performed
New_DM. Step:     5
Initializing Density Matrix...

InitMesh: MESH =    24 x    24 x    24 =       13824
InitMesh: Mesh cutoff (required, used) =    50.000    63.499 Ry

siesta: Eharris(eV) =   -2966.734043


siesta: Eharris(eV) =   -2966.734043


siesta: Atomic forces (eV/Ang):
     1    0.000000    0.000000   -0.000000
     2   -0.000000   -0.000000    0.000000
     3    0.000004   -0.000002   -0.000002
     4   -0.000003    0.000001    0.000001
     5    2.938088   -6.571381   -0.000014
     6   -0.000014    3.942501   -6.022631
     7   -2.938089    2.628888    6.022639
     8   -2.938088    6.571387    0.000017
     9    0.000013   -3.942500    6.022630
    10    2.938087   -2.628887   -6.022639
----------------------------------------
   Tot   -0.000002    0.000006    0.000002
----------------------------------------
   Max    6.571387
   Res    3.219176    sqrt( Sum f_i^2 / 3N )
----------------------------------------
   Max    6.571387    constrained

Stress-tensor-Voigt (kbar):      723.41      471.85      435.93      140.57       41.14       92.02
(Free)E + p*V (eV/cell)    -2977.3085
Target enthalpy (eV/cell)    -2939.9188

siesta: Stress tensor (static) (eV/Ang**3):
         0.451696    0.087450    0.057246
         0.087450    0.295202    0.025595
         0.057246    0.025595    0.272858

siesta: Pressure (static):       -544.61577112  kBar

siesta: Stress tensor (total) (eV/Ang**3):
         0.451511    0.087739    0.057435
         0.087739    0.294500    0.025679
         0.057435    0.025679    0.272082

siesta: Pressure (total):       -543.72779926  kBar

siesta: E_kin PR =     427.980 K

siesta: Temp_ion =     118.457 K

* Maximum dynamic memory allocated =     3 MB

siesta:                 ==============================
                            Begin MD step =      6
                        ==============================

outcoor: Atomic coordinates (fractional):                   
    0.00000000   -0.00000000    0.00000000   1       1  Mg
    0.50000000    0.50000000    0.50000000   1       2  Mg
    0.25000000    0.25000000    0.25000000   2       3  C
   -0.25000000   -0.25000000   -0.25000000   2       4  C
    0.52846303   -0.02846303    0.25000000   3       5  O
    0.25000000    0.52846303   -0.02846302   3       6  O
   -0.02846303    0.25000000    0.52846303   3       7  O
   -0.52846303    0.02846303   -0.25000000   3       8  O
   -0.25000000   -0.52846303    0.02846302   3       9  O
    0.02846303   -0.25000000   -0.52846303   3      10  O

outcell: Unit cell vectors (Ang):
        5.676012    0.001105    0.000724
        3.785621    4.229207    0.000724
        3.785621    1.692557    3.875750

outcell: Cell vector modules (Ang)   :    5.676012    5.676012    5.676012
outcell: Cell angles (23,13,12) (deg):     48.1567     48.1567     48.1567
outcell: Cell volume (Ang**3)        :     93.0074
 Folding of H and S is implicitly performed
New_DM. Step:     6
Initializing Density Matrix...

InitMesh: MESH =    24 x    24 x    24 =       13824
InitMesh: Mesh cutoff (required, used) =    50.000    63.507 Ry

siesta: Eharris(eV) =   -2966.810257


siesta: Eharris(eV) =   -2966.810257


siesta: Atomic forces (eV/Ang):
     1    0.000000   -0.000000   -0.000000
     2   -0.000000    0.000000   -0.000000
     3    0.000000   -0.000000    0.000004
     4    0.000000    0.000001   -0.000005
     5    2.893815   -6.472392    0.000007
     6   -0.000009    3.883101   -5.931884
     7   -2.893809    2.589273    5.931902
     8   -2.893818    6.472391   -0.000006
     9    0.000011   -3.883099    5.931886
    10    2.893809   -2.589276   -5.931899
----------------------------------------
   Tot   -0.000001   -0.000001    0.000003
----------------------------------------
   Max    6.472392
   Res    3.170675    sqrt( Sum f_i^2 / 3N )
----------------------------------------
   Max    6.472392    constrained

Stress-tensor-Voigt (kbar):      724.22      477.41      442.17      137.92       40.37       90.28
(Free)E + p*V (eV/cell)    -2977.5689
Target enthalpy (eV/cell)    -2939.9565

siesta: Stress tensor (static) (eV/Ang**3):
         0.452342    0.085570    0.056015
         0.085570    0.299213    0.025044
         0.056015    0.025044    0.277349

siesta: Pressure (static):       -549.50110967  kBar

siesta: Stress tensor (total) (eV/Ang**3):
         0.452015    0.086081    0.056350
         0.086081    0.297971    0.025194
         0.056350    0.025194    0.275977

siesta: Pressure (total):       -547.93076285  kBar

siesta: E_kin PR =     642.244 K

siesta: Temp_ion =     183.604 K

* Maximum dynamic memory allocated =     3 MB

siesta:                 ==============================
                            Begin MD step =      7
                        ==============================

outcoor: Atomic coordinates (fractional):                   
    0.00000000   -0.00000000    0.00000000   1       1  Mg
    0.50000000    0.50000000    0.50000000   1       2  Mg
    0.25000000    0.25000000    0.25000000   2       3  C
   -0.25000000   -0.25000000   -0.25000000   2       4  C
    0.52892728   -0.02892728    0.25000000   3       5  O
    0.25000000    0.52892728   -0.02892728   3       6  O
   -0.02892728    0.25000000    0.52892728   3       7  O
   -0.52892728    0.02892728   -0.25000000   3       8  O
   -0.25000000   -0.52892728    0.02892728   3       9  O
    0.02892728   -0.25000000   -0.52892728   3      10  O

outcell: Unit cell vectors (Ang):
        5.675283    0.001551    0.001015
        3.785466    4.228366    0.001015
        3.785466    1.692488    3.874863

outcell: Cell vector modules (Ang)   :    5.675283    5.675283    5.675283
outcell: Cell angles (23,13,12) (deg):     48.1477     48.1477     48.1477
outcell: Cell volume (Ang**3)        :     92.9435
 Folding of H and S is implicitly performed
New_DM. Step:     7
Initializing Density Matrix...

InitMesh: MESH =    24 x    24 x    24 =       13824
InitMesh: Mesh cutoff (required, used) =    50.000    63.517 Ry

siesta: Eharris(eV) =   -2966.901954


siesta: Eharris(eV) =   -2966.901954


siesta: Atomic forces (eV/Ang):
     1    0.000000   -0.000000   -0.000000
     2   -0.000000    0.000000    0.000000
     3   -0.000004    0.000002    0.000002
     4    0.000003   -0.000001   -0.000002
     5    2.844480   -6.362052   -0.000017
     6   -0.000009    3.816899   -5.830766
     7   -2.844489    2.545143    5.830773
     8   -2.844483    6.362047    0.000023
     9   -0.000004   -3.816899    5.830754
    10    2.844486   -2.545132   -5.830770
----------------------------------------
   Tot   -0.000018    0.000006   -0.000004
----------------------------------------
   Max    6.362052
   Res    3.116622    sqrt( Sum f_i^2 / 3N )
----------------------------------------
   Max    6.362052    constrained

Stress-tensor-Voigt (kbar):      727.94      486.02      451.48      135.19       39.57       88.50
(Free)E + p*V (eV/cell)    -2978.0057
Target enthalpy (eV/cell)    -2940.0005

siesta: Stress tensor (static) (eV/Ang**3):
         0.454846    0.083583    0.054715
         0.083583    0.305273    0.024463
         0.054715    0.024463    0.283917

siesta: Pressure (static):       -557.58253371  kBar

siesta: Stress tensor (total) (eV/Ang**3):
         0.454340    0.084376    0.055234
         0.084376    0.303347    0.024695
         0.055234    0.024695    0.281788

siesta: Pressure (total):       -555.14714454  kBar

siesta: E_kin PR =     903.330 K

siesta: Temp_ion =     261.630 K

* Maximum dynamic memory allocated =     3 MB

siesta:                 ==============================
                            Begin MD step =      8
                        ==============================

outcoor: Atomic coordinates (fractional):                   
    0.00000000   -0.00000000    0.00000000   1       1  Mg
    0.50000000    0.50000000    0.50000000   1       2  Mg
    0.25000000    0.25000000    0.25000000   2       3  C
   -0.25000000   -0.25000000   -0.25000000   2       4  C
    0.52947296   -0.02947296    0.25000000   3       5  O
    0.25000000    0.52947296   -0.02947296   3       6  O
   -0.02947296    0.25000000    0.52947296   3       7  O
   -0.52947296    0.02947296   -0.25000000   3       8  O
   -0.25000000   -0.52947296    0.02947296   3       9  O
    0.02947296   -0.25000000   -0.52947296   3      10  O

outcell: Unit cell vectors (Ang):
        5.674429    0.002074    0.001358
        3.785287    4.227381    0.001358
        3.785287    1.692408    3.873823

outcell: Cell vector modules (Ang)   :    5.674430    5.674430    5.674430
outcell: Cell angles (23,13,12) (deg):     48.1371     48.1371     48.1371
outcell: Cell volume (Ang**3)        :     92.8687
 Folding of H and S is implicitly performed
New_DM. Step:     8
Initializing Density Matrix...

InitMesh: MESH =    24 x    24 x    24 =       13824
InitMesh: Mesh cutoff (required, used) =    50.000    63.529 Ry

siesta: Eharris(eV) =   -2967.007751


siesta: Eharris(eV) =   -2967.007751


siesta: Atomic forces (eV/Ang):
     1   -0.000000   -0.000000    0.000000
     2    0.000000    0.000000   -0.000000
     3   -0.000000    0.000003    0.000003
     4   -0.000000   -0.000002   -0.000003
     5    2.738134   -6.124224    0.000005
     6    0.000005    3.674209   -5.612793
     7   -2.738135    2.449983    5.612793
     8   -2.738132    6.124220   -0.000004
     9   -0.000002   -3.674212    5.612796
    10    2.738137   -2.449984   -5.612791
----------------------------------------
   Tot    0.000006   -0.000006    0.000005
----------------------------------------
   Max    6.124224
   Res    3.000111    sqrt( Sum f_i^2 / 3N )
----------------------------------------
   Max    6.124224    constrained

Stress-tensor-Voigt (kbar):      734.27      505.15      472.44      128.03       37.47       83.81
(Free)E + p*V (eV/cell)    -2978.9212
Target enthalpy (eV/cell)    -2940.0498

siesta: Stress tensor (static) (eV/Ang**3):
         0.459010    0.078779    0.051570
         0.078779    0.318034    0.023057
         0.051570    0.023057    0.297905

siesta: Pressure (static):       -574.09250375  kBar

siesta: Stress tensor (total) (eV/Ang**3):
         0.458288    0.079909    0.052310
         0.079909    0.315288    0.023388
         0.052310    0.023388    0.294871

siesta: Pressure (total):       -570.61971749  kBar

siesta: E_kin PR =    1216.983 K

siesta: Temp_ion =     350.833 K

* Maximum dynamic memory allocated =     3 MB

siesta:                 ==============================
                            Begin MD step =      9
                        ==============================

outcoor: Atomic coordinates (fractional):                   
    0.00000000   -0.00000000    0.00000000   1       1  Mg
    0.50000000    0.50000000    0.50000000   1       2  Mg
    0.25000000    0.25000000    0.25000000   2       3  C
   -0.25000000   -0.25000000   -0.25000000   2       4  C
    0.53009720   -0.03009720    0.25000000   3       5  O
    0.25000000    0.53009720   -0.03009719   3       6  O
   -0.03009720    0.25000000    0.53009720   3       7  O
   -0.53009720    0.03009720   -0.25000000   3       8  O
   -0.25000000   -0.53009719    0.03009719   3       9  O
    0.03009720   -0.25000000   -0.53009720   3      10  O

outcell: Unit cell vectors (Ang):
        5.673449    0.002680    0.001754
        3.785085    4.226247    0.001754
        3.785085    1.692318    3.872626

outcell: Cell vector modules (Ang)   :    5.673450    5.673450    5.673450
outcell: Cell angles (23,13,12) (deg):     48.1249     48.1249     48.1249
outcell: Cell volume (Ang**3)        :     92.7826
 Folding of H and S is implicitly performed
New_DM. Step:     9
Initializing Density Matrix...

InitMesh: MESH =    24 x    24 x    24 =       13824
InitMesh: Mesh cutoff (required, used) =    50.000    63.542 Ry

siesta: Eharris(eV) =   -2967.125473


siesta: Eharris(eV) =   -2967.125473


siesta: Atomic forces (eV/Ang):
     1    0.000000    0.000000    0.000000
     2   -0.000000    0.000000   -0.000000
     3   -0.000002    0.000002   -0.000000
     4    0.000002   -0.000002   -0.000000
     5    2.679555   -5.993178    0.000010
     6    0.000004    3.595597   -5.492697
     7   -2.679556    2.397570    5.492712
     8   -2.679550    5.993175   -0.000005
     9   -0.000006   -3.595595    5.492698
    10    2.679554   -2.397567   -5.492713
----------------------------------------
   Tot    0.000002    0.000003    0.000004
----------------------------------------
   Max    5.993178
   Res    2.935920    sqrt( Sum f_i^2 / 3N )
----------------------------------------
   Max    5.993178    constrained

Stress-tensor-Voigt (kbar):      737.20      512.03      479.89      125.82       36.83       82.37
(Free)E + p*V (eV/cell)    -2979.2695
Target enthalpy (eV/cell)    -2940.1010

siesta: Stress tensor (static) (eV/Ang**3):
         0.461086    0.077014    0.050414
         0.077014    0.323268    0.022540
         0.050414    0.022540    0.303590

siesta: Pressure (static):       -581.03264834  kBar

siesta: Stress tensor (total) (eV/Ang**3):
         0.460117    0.078531    0.051408
         0.078531    0.319583    0.022984
         0.051408    0.022984    0.299518

siesta: Pressure (total):       -576.37199865  kBar

siesta: E_kin PR =    1585.999 K

siesta: Temp_ion =     449.981 K

* Maximum dynamic memory allocated =     3 MB

siesta:                 ==============================
                            Begin MD step =     10
                        ==============================

outcoor: Atomic coordinates (fractional):                   
    0.00000000   -0.00000000    0.00000000   1       1  Mg
    0.50000000    0.50000000    0.50000000   1       2  Mg
    0.25000000    0.25000000    0.25000000   2       3  C
   -0.25000000   -0.25000000   -0.25000000   2       4  C
    0.53079847   -0.03079847    0.25000000   3       5  O
    0.25000000    0.53079847   -0.03079847   3       6  O
   -0.03079847    0.25000000    0.53079847   3       7  O
   -0.53079847    0.03079847   -0.25000000   3       8  O
   -0.24999999   -0.53079847    0.03079846   3       9  O
    0.03079847   -0.25000000   -0.53079847   3      10  O

outcell: Unit cell vectors (Ang):
        5.672342    0.003369    0.002205
        3.784860    4.224962    0.002205
        3.784860    1.692217    3.871268

outcell: Cell vector modules (Ang)   :    5.672343    5.672343    5.672343
outcell: Cell angles (23,13,12) (deg):     48.1109     48.1109     48.1109
outcell: Cell volume (Ang**3)        :     92.6850
 Folding of H and S is implicitly performed
New_DM. Step:    10
Initializing Density Matrix...

InitMesh: MESH =    24 x    24 x    24 =       13824
InitMesh: Mesh cutoff (required, used) =    50.000    63.557 Ry

siesta: Eharris(eV) =   -2967.255037


siesta: Eharris(eV) =   -2967.255037


siesta: Atomic forces (eV/Ang):
     1    0.000000   -0.000000    0.000000
     2   -0.000000    0.000000    0.000000
     3   -0.000004    0.000001    0.000003
     4    0.000004   -0.000001   -0.000003
     5    2.604372   -5.825012   -0.000001
     6   -0.000003    3.494710   -5.338580
     7   -2.604365    2.330283    5.338574
     8   -2.604372    5.825011    0.000002
     9   -0.000003   -3.494707    5.338579
    10    2.604367   -2.330290   -5.338576
----------------------------------------
   Tot   -0.000004   -0.000004   -0.000002
----------------------------------------
   Max    5.825012
   Res    2.853539    sqrt( Sum f_i^2 / 3N )
----------------------------------------
   Max    5.825012    constrained

Stress-tensor-Voigt (kbar):      739.87      519.87      488.46      122.94       35.98       80.48
(Free)E + p*V (eV/cell)    -2979.6496
Target enthalpy (eV/cell)    -2940.1543

siesta: Stress tensor (static) (eV/Ang**3):
         0.463030    0.074782    0.048954
         0.074782    0.329205    0.021887
         0.048954    0.021887    0.310098

siesta: Pressure (static):       -588.71693807  kBar

siesta: Stress tensor (total) (eV/Ang**3):
         0.461786    0.076731    0.050229
         0.076731    0.324474    0.022457
         0.050229    0.022457    0.304869

siesta: Pressure (total):       -582.73351679  kBar

siesta: E_kin PR =    2009.181 K

siesta: Temp_ion =     558.668 K

* Maximum dynamic memory allocated =     3 MB

siesta:                 ==============================
                            Begin MD step =     11
                        ==============================

outcoor: Atomic coordinates (fractional):                   
    0.00000000   -0.00000000    0.00000000   1       1  Mg
    0.50000000    0.50000000    0.50000000   1       2  Mg
    0.25000000    0.25000000    0.25000000   2       3  C
   -0.25000000   -0.25000000   -0.25000000   2       4  C
    0.53157482   -0.03157482    0.25000000   3       5  O
    0.24999999    0.53157482   -0.03157482   3       6  O
   -0.03157482    0.25000000    0.53157483   3       7  O
   -0.53157482    0.03157482   -0.25000000   3       8  O
   -0.24999999   -0.53157482    0.03157482   3       9  O
    0.03157482   -0.25000000   -0.53157483   3      10  O

outcell: Unit cell vectors (Ang):
        5.671106    0.004143    0.002712
        3.784613    4.223525    0.002712
        3.784613    1.692107    3.869747

outcell: Cell vector modules (Ang)   :    5.671108    5.671108    5.671108
outcell: Cell angles (23,13,12) (deg):     48.0953     48.0953     48.0953
outcell: Cell volume (Ang**3)        :     92.5758
 Folding of H and S is implicitly performed
New_DM. Step:    11
Initializing Density Matrix...

InitMesh: MESH =    24 x    24 x    24 =       13824
InitMesh: Mesh cutoff (required, used) =    50.000    63.574 Ry

siesta: Eharris(eV) =   -2967.394671


siesta: Eharris(eV) =   -2967.394671


siesta: Atomic forces (eV/Ang):
     1   -0.000000   -0.000000   -0.000000
     2   -0.000000   -0.000000    0.000000
     3   -0.000001   -0.000000    0.000001
     4    0.000000   -0.000001   -0.000000
     5    2.521185   -5.638943   -0.000007
     6    0.000000    3.383081   -5.168059
     7   -2.521180    2.255848    5.168063
     8   -2.521190    5.638943    0.000005
     9   -0.000005   -3.383073    5.168054
    10    2.521176   -2.255851   -5.168065
----------------------------------------
   Tot   -0.000014    0.000005   -0.000009
----------------------------------------
   Max    5.638943
   Res    2.762392    sqrt( Sum f_i^2 / 3N )
----------------------------------------
   Max    5.638943    constrained

Stress-tensor-Voigt (kbar):      743.56      528.41      497.69      120.23       35.19       78.70
(Free)E + p*V (eV/cell)    -2980.0698
Target enthalpy (eV/cell)    -2940.2078

siesta: Stress tensor (static) (eV/Ang**3):
         0.465634    0.072617    0.047536
         0.072617    0.335684    0.021253
         0.047536    0.021253    0.317129

siesta: Pressure (static):       -597.32275986  kBar

siesta: Stress tensor (total) (eV/Ang**3):
         0.464087    0.075038    0.049121
         0.075038    0.329804    0.021962
         0.049121    0.021962    0.310631

siesta: Pressure (total):       -589.88620014  kBar

siesta: E_kin PR =    2489.020 K

siesta: Temp_ion =     675.468 K

* Maximum dynamic memory allocated =     3 MB

siesta:                 ==============================
                            Begin MD step =     12
                        ==============================

outcoor: Atomic coordinates (fractional):                   
    0.00000000   -0.00000000    0.00000000   1       1  Mg
    0.50000000    0.50000000    0.50000000   1       2  Mg
    0.25000000    0.25000000    0.25000000   2       3  C
   -0.25000000   -0.25000000   -0.25000000   2       4  C
    0.53242409   -0.03242409    0.25000000   3       5  O
    0.24999999    0.53242408   -0.03242408   3       6  O
   -0.03242409    0.25000000    0.53242409   3       7  O
   -0.53242409    0.03242409   -0.25000000   3       8  O
   -0.24999999   -0.53242408    0.03242408   3       9  O
    0.03242409   -0.25000000   -0.53242409   3      10  O

outcell: Unit cell vectors (Ang):
        5.669739    0.005004    0.003276
        3.784344    4.221932    0.003276
        3.784344    1.691986    3.868062

outcell: Cell vector modules (Ang)   :    5.669742    5.669742    5.669742
outcell: Cell angles (23,13,12) (deg):     48.0779     48.0779     48.0779
outcell: Cell volume (Ang**3)        :     92.4548
 Folding of H and S is implicitly performed
New_DM. Step:    12
Initializing Density Matrix...

InitMesh: MESH =    24 x    24 x    24 =       13824
InitMesh: Mesh cutoff (required, used) =    50.000    63.592 Ry

siesta: Eharris(eV) =   -2967.541048


siesta: Eharris(eV) =   -2967.541048


siesta: Atomic forces (eV/Ang):
     1   -0.000000   -0.000000    0.000000
     2    0.000000   -0.000000    0.000000
     3   -0.000001   -0.000002    0.000004
     4    0.000002    0.000002   -0.000004
     5    2.349543   -5.255048    0.000003
     6    0.000007    3.152781   -4.816225
     7   -2.349539    2.102286    4.816210
     8   -2.349545    5.255042   -0.000010
     9   -0.000010   -3.152779    4.816223
    10    2.349539   -2.102284   -4.816204
----------------------------------------
   Tot   -0.000005   -0.000002   -0.000003
----------------------------------------
   Max    5.255048
   Res    2.574331    sqrt( Sum f_i^2 / 3N )
----------------------------------------
   Max    5.255048    constrained

Stress-tensor-Voigt (kbar):      755.73      561.05      533.26      108.79       31.84       71.21
(Free)E + p*V (eV/cell)    -2981.6131
Target enthalpy (eV/cell)    -2940.2570

siesta: Stress tensor (static) (eV/Ang**3):
         0.473556    0.064968    0.042529
         0.064968    0.357295    0.019015
         0.042529    0.019015    0.340695

siesta: Pressure (static):       -625.68109181  kBar

siesta: Stress tensor (total) (eV/Ang**3):
         0.471684    0.067899    0.044448
         0.067899    0.350177    0.019873
         0.044448    0.019873    0.332829

siesta: Pressure (total):       -616.67905816  kBar

siesta: E_kin PR =    3039.483 K

siesta: Temp_ion =     796.922 K

* Maximum dynamic memory allocated =     3 MB

siesta:                 ==============================
                            Begin MD step =     13
                        ==============================

outcoor: Atomic coordinates (fractional):                   
    0.00000000   -0.00000000    0.00000000   1       1  Mg
    0.50000000    0.50000000    0.50000000   1       2  Mg
    0.25000000    0.25000000    0.25000000   2       3  C
   -0.25000000   -0.25000000   -0.25000000   2       4  C
    0.53334158   -0.03334158    0.25000000   3       5  O
    0.24999999    0.53334157   -0.03334157   3       6  O
   -0.03334158    0.25000000    0.53334158   3       7  O
   -0.53334158    0.03334158   -0.25000000   3       8  O
   -0.24999999   -0.53334157    0.03334157   3       9  O
    0.03334158   -0.25000000   -0.53334158   3      10  O

outcell: Unit cell vectors (Ang):
        5.668238    0.005960    0.003901
        3.784055    4.220176    0.003901
        3.784055    1.691857    3.866203

outcell: Cell vector modules (Ang)   :    5.668243    5.668243    5.668243
outcell: Cell angles (23,13,12) (deg):     48.0585     48.0585     48.0585
outcell: Cell volume (Ang**3)        :     92.3215
 Folding of H and S is implicitly performed
New_DM. Step:    13
Initializing Density Matrix...

InitMesh: MESH =    24 x    24 x    24 =       13824
InitMesh: Mesh cutoff (required, used) =    50.000    63.612 Ry

siesta: Eharris(eV) =   -2967.692943


siesta: Eharris(eV) =   -2967.692943


siesta: Atomic forces (eV/Ang):
     1   -0.000000    0.000000   -0.000000
     2   -0.000000    0.000000    0.000000
     3   -0.000002   -0.000004    0.000003
     4    0.000002    0.000003   -0.000003
     5    2.241033   -5.012345   -0.000001
     6    0.000005    3.007150   -4.593773
     7   -2.241016    2.005204    4.593769
     8   -2.241034    5.012338    0.000003
     9   -0.000001   -3.007149    4.593778
    10    2.241018   -2.005202   -4.593769
----------------------------------------
   Tot    0.000005   -0.000006    0.000007
----------------------------------------
   Max    5.012345
   Res    2.455432    sqrt( Sum f_i^2 / 3N )
----------------------------------------
   Max    5.012345    constrained

Stress-tensor-Voigt (kbar):      760.49      571.68      544.72      105.51       30.88       69.07
(Free)E + p*V (eV/cell)    -2982.1138
Target enthalpy (eV/cell)    -2940.3019

siesta: Stress tensor (static) (eV/Ang**3):
         0.476866    0.062391    0.040842
         0.062391    0.365216    0.018261
         0.040842    0.018261    0.349274

siesta: Pressure (static):       -636.26152112  kBar

siesta: Stress tensor (total) (eV/Ang**3):
         0.474655    0.065854    0.043109
         0.065854    0.356808    0.019274
         0.043109    0.019274    0.339981

siesta: Pressure (total):       -625.62682812  kBar

siesta: E_kin PR =    3667.226 K

siesta: Temp_ion =     920.816 K

* Maximum dynamic memory allocated =     3 MB

siesta:                 ==============================
                            Begin MD step =     14
                        ==============================

outcoor: Atomic coordinates (fractional):                   
    0.00000000   -0.00000000    0.00000000   1       1  Mg
    0.50000000    0.50000000    0.50000000   1       2  Mg
    0.25000000    0.25000000    0.25000000   2       3  C
   -0.25000000   -0.25000000   -0.25000000   2       4  C
    0.53432444   -0.03432444    0.25000000   3       5  O
    0.24999999    0.53432443   -0.03432443   3       6  O
   -0.03432444    0.25000000    0.53432444   3       7  O
   -0.53432444    0.03432444   -0.25000000   3       8  O
   -0.24999999   -0.53432443    0.03432443   3       9  O
    0.03432444   -0.25000000   -0.53432444   3      10  O

outcell: Unit cell vectors (Ang):
        5.666600    0.007012    0.004590
        3.783747    4.218255    0.004590
        3.783747    1.691720    3.864166

outcell: Cell vector modules (Ang)   :    5.666607    5.666607    5.666607
outcell: Cell angles (23,13,12) (deg):     48.0372     48.0372     48.0372
outcell: Cell volume (Ang**3)        :     92.1755
 Folding of H and S is implicitly performed
New_DM. Step:    14
Initializing Density Matrix...

InitMesh: MESH =    24 x    24 x    24 =       13824
InitMesh: Mesh cutoff (required, used) =    50.000    63.633 Ry

siesta: Eharris(eV) =   -2967.849035


siesta: Eharris(eV) =   -2967.849035


siesta: Atomic forces (eV/Ang):
     1   -0.000000    0.000000    0.000000
     2   -0.000000    0.000000    0.000000
     3   -0.000003   -0.000002    0.000003
     4    0.000002    0.000000   -0.000003
     5    2.120880   -4.743621   -0.000013
     6   -0.000003    2.845934   -4.347514
     7   -2.120883    1.897693    4.347488
     8   -2.120875    4.743620    0.000006
     9    0.000005   -2.845944    4.347514
    10    2.120887   -1.897696   -4.347491
----------------------------------------
   Tot    0.000009   -0.000014   -0.000010
----------------------------------------
   Max    4.743621
   Res    2.323795    sqrt( Sum f_i^2 / 3N )
----------------------------------------
   Max    4.743621    constrained

Stress-tensor-Voigt (kbar):      765.34      583.08      557.06      101.85       29.81       66.67
(Free)E + p*V (eV/cell)    -2982.6351
Target enthalpy (eV/cell)    -2940.3408

siesta: Stress tensor (static) (eV/Ang**3):
         0.480240    0.059560    0.038989
         0.059560    0.373655    0.017432
         0.038989    0.017432    0.358437

siesta: Pressure (static):       -647.46357026  kBar

siesta: Stress tensor (total) (eV/Ang**3):
         0.477680    0.063567    0.041612
         0.063567    0.363926    0.018605
         0.041612    0.018605    0.347684

siesta: Pressure (total):       -635.15763526  kBar

siesta: E_kin PR =    4365.943 K

siesta: Temp_ion =    1047.103 K

* Maximum dynamic memory allocated =     3 MB

siesta:                 ==============================
                            Begin MD step =     15
                        ==============================

outcoor: Atomic coordinates (fractional):                   
    0.00000000   -0.00000000    0.00000000   1       1  Mg
    0.50000000    0.50000000    0.50000000   1       2  Mg
    0.25000000    0.25000000    0.25000000   2       3  C
   -0.25000000   -0.25000000   -0.25000000   2       4  C
    0.53536949   -0.03536949    0.25000000   3       5  O
    0.24999999    0.53536948   -0.03536948   3       6  O
   -0.03536949    0.25000000    0.53536949   3       7  O
   -0.53536949    0.03536949   -0.25000000   3       8  O
   -0.24999999   -0.53536948    0.03536948   3       9  O
    0.03536949   -0.25000000   -0.53536949   3      10  O

outcell: Unit cell vectors (Ang):
        5.664825    0.008163    0.005343
        3.783420    4.216164    0.005343
        3.783420    1.691574    3.861948

outcell: Cell vector modules (Ang)   :    5.664833    5.664833    5.664833
outcell: Cell angles (23,13,12) (deg):     48.0139     48.0139     48.0139
outcell: Cell volume (Ang**3)        :     92.0168
 Folding of H and S is implicitly performed
New_DM. Step:    15
Initializing Density Matrix...

InitMesh: MESH =    24 x    24 x    24 =       13824
InitMesh: Mesh cutoff (required, used) =    50.000    63.657 Ry

siesta: Eharris(eV) =   -2968.007256


siesta: Eharris(eV) =   -2968.007256


siesta: Atomic forces (eV/Ang):
     1    0.000000   -0.000000   -0.000000
     2    0.000000   -0.000000    0.000000
     3    0.000001   -0.000003    0.000002
     4   -0.000001    0.000003   -0.000001
     5    1.999617   -4.472405   -0.000010
     6    0.000006    2.683215   -4.098944
     7   -1.999623    1.789180    4.098935
     8   -1.999617    4.472405    0.000016
     9   -0.000010   -2.683217    4.098948
    10    1.999628   -1.789176   -4.098936
----------------------------------------
   Tot    0.000002    0.000001    0.000010
----------------------------------------
   Max    4.472405
   Res    2.190933    sqrt( Sum f_i^2 / 3N )
----------------------------------------
   Max    4.472405    constrained

Stress-tensor-Voigt (kbar):      768.98      591.68      566.37       99.07       29.00       64.86
(Free)E + p*V (eV/cell)    -2983.0062
Target enthalpy (eV/cell)    -2940.3722

siesta: Stress tensor (static) (eV/Ang**3):
         0.482868    0.057273    0.037492
         0.057273    0.380376    0.016763
         0.037492    0.016763    0.365742

siesta: Pressure (static):       -656.35804029  kBar

siesta: Stress tensor (total) (eV/Ang**3):
         0.479953    0.061837    0.040479
         0.061837    0.369295    0.018098
         0.040479    0.018098    0.353495

siesta: Pressure (total):       -642.34204136  kBar

siesta: E_kin PR =    5137.365 K

siesta: Temp_ion =    1174.177 K

* Maximum dynamic memory allocated =     3 MB

siesta:                 ==============================
                            Begin MD step =     16
                        ==============================

outcoor: Atomic coordinates (fractional):                   
    0.00000000   -0.00000000    0.00000000   1       1  Mg
    0.50000000    0.50000000    0.50000000   1       2  Mg
    0.25000000    0.25000000    0.25000000   2       3  C
   -0.25000000   -0.25000000   -0.25000000   2       4  C
    0.53647353   -0.03647353    0.25000000   3       5  O
    0.24999999    0.53647352   -0.03647352   3       6  O
   -0.03647353    0.25000000    0.53647353   3       7  O
   -0.53647353    0.03647353   -0.25000000   3       8  O
   -0.24999999   -0.53647352    0.03647352   3       9  O
    0.03647353   -0.25000000   -0.53647353   3      10  O

outcell: Unit cell vectors (Ang):
        5.662910    0.009414    0.006163
        3.783076    4.213902    0.006163
        3.783076    1.691420    3.859548

outcell: Cell vector modules (Ang)   :    5.662921    5.662921    5.662921
outcell: Cell angles (23,13,12) (deg):     47.9885     47.9885     47.9885
outcell: Cell volume (Ang**3)        :     91.8451
 Folding of H and S is implicitly performed
New_DM. Step:    16
Initializing Density Matrix...

InitMesh: MESH =    24 x    24 x    24 =       13824
InitMesh: Mesh cutoff (required, used) =    50.000    63.682 Ry

siesta: Eharris(eV) =   -2968.165835


siesta: Eharris(eV) =   -2968.165835


siesta: Atomic forces (eV/Ang):
     1   -0.000000    0.000000   -0.000000
     2    0.000000    0.000000   -0.000000
     3    0.000000    0.000001    0.000000
     4   -0.000001   -0.000003    0.000001
     5    1.866350   -4.174344   -0.000009
     6    0.000001    2.504409   -3.825777
     7   -1.866360    1.669956    3.825761
     8   -1.866352    4.174347    0.000009
     9   -0.000001   -2.504414    3.825775
    10    1.866363   -1.669956   -3.825764
----------------------------------------
   Tot    0.000001   -0.000003   -0.000003
----------------------------------------
   Max    4.174347
   Res    2.044922    sqrt( Sum f_i^2 / 3N )
----------------------------------------
   Max    4.174347    constrained

Stress-tensor-Voigt (kbar):      773.22      600.42      575.75       96.56       28.26       63.21
(Free)E + p*V (eV/cell)    -2983.3763
Target enthalpy (eV/cell)    -2940.3944

siesta: Stress tensor (static) (eV/Ang**3):
         0.485873    0.055140    0.036095
         0.055140    0.387200    0.016138
         0.036095    0.016138    0.373111

siesta: Pressure (static):       -665.54258606  kBar

siesta: Stress tensor (total) (eV/Ang**3):
         0.482599    0.060266    0.039451
         0.060266    0.374752    0.017639
         0.039451    0.017639    0.359353

siesta: Pressure (total):       -649.79831145  kBar

siesta: E_kin PR =    5982.393 K

siesta: Temp_ion =    1300.400 K

* Maximum dynamic memory allocated =     3 MB

siesta:                 ==============================
                            Begin MD step =     17
                        ==============================

outcoor: Atomic coordinates (fractional):                   
    0.00000000   -0.00000000    0.00000000   1       1  Mg
    0.50000000    0.50000000    0.50000000   1       2  Mg
    0.25000000    0.25000000    0.25000000   2       3  C
   -0.25000000   -0.25000000   -0.25000000   2       4  C
    0.53763304   -0.03763303    0.25000000   3       5  O
    0.24999999    0.53763303   -0.03763302   3       6  O
   -0.03763303    0.25000000    0.53763303   3       7  O
   -0.53763304    0.03763303   -0.25000000   3       8  O
   -0.24999999   -0.53763302    0.03763302   3       9  O
    0.03763303   -0.25000000   -0.53763303   3      10  O

outcell: Unit cell vectors (Ang):
        5.660854    0.010768    0.007049
        3.782715    4.211467    0.007049
        3.782715    1.691258    3.856961

outcell: Cell vector modules (Ang)   :    5.660869    5.660869    5.660869
outcell: Cell angles (23,13,12) (deg):     47.9610     47.9610     47.9610
outcell: Cell volume (Ang**3)        :     91.6604
 Folding of H and S is implicitly performed
New_DM. Step:    17
Initializing Density Matrix...

InitMesh: MESH =    24 x    24 x    24 =       13824
InitMesh: Mesh cutoff (required, used) =    50.000    63.709 Ry

siesta: Eharris(eV) =   -2968.322739


siesta: Eharris(eV) =   -2968.322739


siesta: Atomic forces (eV/Ang):
     1    0.000000   -0.000000    0.000000
     2    0.000000   -0.000000    0.000000
     3    0.000000   -0.000003    0.000002
     4   -0.000001    0.000003   -0.000003
     5    1.727109   -3.862932    0.000006
     6   -0.000005    2.317579   -3.540373
     7   -1.727131    1.545366    3.540357
     8   -1.727110    3.862930   -0.000010
     9    0.000006   -2.317578    3.540367
    10    1.727132   -1.545366   -3.540357
----------------------------------------
   Tot   -0.000001    0.000000   -0.000011
----------------------------------------
   Max    3.862932
   Res    1.892367    sqrt( Sum f_i^2 / 3N )
----------------------------------------
   Max    3.862932    constrained

Stress-tensor-Voigt (kbar):      778.12      610.11      586.12       93.89       27.48       61.46
(Free)E + p*V (eV/cell)    -2983.7776
Target enthalpy (eV/cell)    -2940.4060

siesta: Stress tensor (static) (eV/Ang**3):
         0.489295    0.052910    0.034636
         0.052910    0.394611    0.015486
         0.034636    0.015486    0.381092

siesta: Pressure (static):       -675.59042008  kBar

siesta: Stress tensor (total) (eV/Ang**3):
         0.485662    0.058598    0.038359
         0.058598    0.380799    0.017151
         0.038359    0.017151    0.365826

siesta: Pressure (total):       -658.12083390  kBar

siesta: E_kin PR =    6904.115 K

siesta: Temp_ion =    1423.953 K

* Maximum dynamic memory allocated =     3 MB

siesta:                 ==============================
                            Begin MD step =     18
                        ==============================

outcoor: Atomic coordinates (fractional):                   
    0.00000000   -0.00000000    0.00000000   1       1  Mg
    0.50000000    0.50000000    0.50000000   1       2  Mg
    0.25000000    0.25000000    0.25000000   2       3  C
   -0.25000000   -0.25000000   -0.25000000   2       4  C
    0.53884431   -0.03884431    0.25000000   3       5  O
    0.24999999    0.53884430   -0.03884429   3       6  O
   -0.03884430    0.25000000    0.53884431   3       7  O
   -0.53884431    0.03884430   -0.25000000   3       8  O
   -0.24999999   -0.53884430    0.03884429   3       9  O
    0.03884430   -0.25000000   -0.53884431   3      10  O

outcell: Unit cell vectors (Ang):
        5.658657    0.012227    0.008004
        3.782336    4.208857    0.008004
        3.782336    1.691089    3.854187

outcell: Cell vector modules (Ang)   :    5.658676    5.658676    5.658676
outcell: Cell angles (23,13,12) (deg):     47.9313     47.9313     47.9313
outcell: Cell volume (Ang**3)        :     91.4625
 Folding of H and S is implicitly performed
New_DM. Step:    18
Initializing Density Matrix...

InitMesh: MESH =    24 x    24 x    24 =       13824
InitMesh: Mesh cutoff (required, used) =    50.000    63.737 Ry

siesta: Eharris(eV) =   -2968.475873


siesta: Eharris(eV) =   -2968.475873


siesta: Atomic forces (eV/Ang):
     1   -0.000000    0.000000    0.000000
     2    0.000000    0.000000    0.000000
     3   -0.000002   -0.000001   -0.000001
     4    0.000004    0.000003   -0.000001
     5    1.564993   -3.500302    0.000005
     6    0.000004    2.100000   -3.208005
     7   -1.564987    1.400304    3.208012
     8   -1.564993    3.500301   -0.000002
     9    0.000005   -2.100010    3.208011
    10    1.564985   -1.400305   -3.208017
----------------------------------------
   Tot    0.000009   -0.000011    0.000002
----------------------------------------
   Max    3.500302
   Res    1.714721    sqrt( Sum f_i^2 / 3N )
----------------------------------------
   Max    3.500302    constrained

Stress-tensor-Voigt (kbar):      785.31      625.18      602.31       89.49       26.19       58.58
(Free)E + p*V (eV/cell)    -2984.4152
Target enthalpy (eV/cell)    -2940.4057

siesta: Stress tensor (static) (eV/Ang**3):
         0.494136    0.049611    0.032476
         0.049611    0.405356    0.014520
         0.032476    0.014520    0.392680

siesta: Pressure (static):       -690.10374092  kBar

siesta: Stress tensor (total) (eV/Ang**3):
         0.490150    0.055852    0.036561
         0.055852    0.390201    0.016347
         0.036561    0.016347    0.375931

siesta: Pressure (total):       -670.93553494  kBar

siesta: E_kin PR =    7909.944 K

siesta: Temp_ion =    1542.603 K

* Maximum dynamic memory allocated =     3 MB

siesta:                 ==============================
                            Begin MD step =     19
                        ==============================

outcoor: Atomic coordinates (fractional):                   
    0.00000000   -0.00000000    0.00000000   1       1  Mg
    0.50000000    0.50000000    0.50000000   1       2  Mg
    0.25000000    0.25000000    0.25000000   2       3  C
   -0.25000000   -0.25000000   -0.25000000   2       4  C
    0.54010300   -0.04010300    0.25000000   3       5  O
    0.24999999    0.54010299   -0.04010299   3       6  O
   -0.04010299    0.25000000    0.54010300   3       7  O
   -0.54010300    0.04010300   -0.25000000   3       8  O
   -0.24999999   -0.54010299    0.04010298   3       9  O
    0.04010299   -0.25000000   -0.54010300   3      10  O

outcell: Unit cell vectors (Ang):
        5.656315    0.013793    0.009029
        3.781942    4.206068    0.009029
        3.781942    1.690913    3.851221

outcell: Cell vector modules (Ang)   :    5.656339    5.656339    5.656339
outcell: Cell angles (23,13,12) (deg):     47.8995     47.8995     47.8995
outcell: Cell volume (Ang**3)        :     91.2511
 Folding of H and S is implicitly performed
New_DM. Step:    19
Initializing Density Matrix...

InitMesh: MESH =    24 x    24 x    24 =       13824
InitMesh: Mesh cutoff (required, used) =    50.000    63.767 Ry

siesta: Eharris(eV) =   -2968.623564


siesta: Eharris(eV) =   -2968.623564


siesta: Atomic forces (eV/Ang):
     1   -0.000000   -0.000000    0.000000
     2   -0.000000   -0.000000   -0.000000
     3   -0.000001    0.000001   -0.000003
     4    0.000001   -0.000000    0.000001
     5    1.407123   -3.147203   -0.000024
     6    0.000008    1.888158   -2.884379
     7   -1.407127    1.259045    2.884393
     8   -1.407121    3.147204    0.000020
     9   -0.000010   -1.888156    2.884388
    10    1.407126   -1.259045   -2.884393
----------------------------------------
   Tot    0.000000    0.000004    0.000004
----------------------------------------
   Max    3.147204
   Res    1.541744    sqrt( Sum f_i^2 / 3N )
----------------------------------------
   Max    3.147204    constrained

Stress-tensor-Voigt (kbar):      793.67      641.47      619.74       85.05       24.89       55.67
(Free)E + p*V (eV/cell)    -2985.0995
Target enthalpy (eV/cell)    -2940.3929

siesta: Stress tensor (static) (eV/Ang**3):
         0.499691    0.046306    0.030313
         0.046306    0.416825    0.013553
         0.030313    0.013553    0.404993

siesta: Pressure (static):       -705.77129138  kBar

siesta: Stress tensor (total) (eV/Ang**3):
         0.495363    0.053082    0.034748
         0.053082    0.400371    0.015536
         0.034748    0.015536    0.386808

siesta: Pressure (total):       -684.96070170  kBar

siesta: E_kin PR =    9008.840 K

siesta: Temp_ion =    1654.434 K

* Maximum dynamic memory allocated =     3 MB

siesta:                 ==============================
                            Begin MD step =     20
                        ==============================

outcoor: Atomic coordinates (fractional):                   
    0.00000000   -0.00000000    0.00000000   1       1  Mg
    0.50000000    0.50000000    0.50000000   1       2  Mg
    0.25000000    0.25000000    0.25000000   2       3  C
   -0.25000000   -0.25000000   -0.25000000   2       4  C
    0.54140489   -0.04140489    0.25000000   3       5  O
    0.24999999    0.54140488   -0.04140488   3       6  O
   -0.04140489    0.25000000    0.54140489   3       7  O
   -0.54140489    0.04140489   -0.24999999   3       8  O
   -0.24999999   -0.54140488    0.04140488   3       9  O
    0.04140489   -0.25000000   -0.54140489   3      10  O

outcell: Unit cell vectors (Ang):
        5.653827    0.015470    0.010127
        3.781533    4.203096    0.010127
        3.781533    1.690730    3.848058

outcell: Cell vector modules (Ang)   :    5.653858    5.653858    5.653858
outcell: Cell angles (23,13,12) (deg):     47.8654     47.8654     47.8654
outcell: Cell volume (Ang**3)        :     91.0261
 Folding of H and S is implicitly performed
New_DM. Step:    20
Initializing Density Matrix...

InitMesh: MESH =    24 x    24 x    24 =       13824
InitMesh: Mesh cutoff (required, used) =    50.000    63.799 Ry

siesta: Eharris(eV) =   -2968.763426


siesta: Eharris(eV) =   -2968.763426


siesta: Atomic forces (eV/Ang):
     1   -0.000000   -0.000000    0.000000
     2    0.000000    0.000000   -0.000000
     3   -0.000001   -0.000001   -0.000002
     4   -0.000000    0.000002    0.000002
     5    1.210653   -2.707777    0.000005
     6    0.000003    1.624538   -2.481650
     7   -1.210658    1.083240    2.481665
     8   -1.210661    2.707778   -0.000002
     9    0.000004   -1.624529    2.481651
    10    1.210660   -1.083233   -2.481661
----------------------------------------
   Tot    0.000000    0.000019    0.000008
----------------------------------------
   Max    2.707778
   Res    1.326479    sqrt( Sum f_i^2 / 3N )
----------------------------------------
   Max    2.707778    constrained

Stress-tensor-Voigt (kbar):      801.74      662.11      642.18       78.03       22.84       51.08
(Free)E + p*V (eV/cell)    -2985.9298
Target enthalpy (eV/cell)    -2940.3648

siesta: Stress tensor (static) (eV/Ang**3):
         0.505056    0.041415    0.027111
         0.041415    0.430943    0.012121
         0.027111    0.012121    0.420361

siesta: Pressure (static):       -724.38368685  kBar

siesta: Stress tensor (total) (eV/Ang**3):
         0.500404    0.048699    0.031879
         0.048699    0.413255    0.014253
         0.031879    0.014253    0.400812

siesta: Pressure (total):       -702.01244502  kBar

siesta: E_kin PR =   10210.456 K

siesta: Temp_ion =    1756.949 K

* Maximum dynamic memory allocated =     3 MB

siesta:                 ==============================
                            Begin MD step =     21
                        ==============================

outcoor: Atomic coordinates (fractional):                   
    0.00000000   -0.00000000    0.00000000   1       1  Mg
    0.50000000    0.50000000    0.50000000   1       2  Mg
    0.25000000    0.25000000    0.25000000   2       3  C
   -0.25000000   -0.25000000   -0.25000000   2       4  C
    0.54274465   -0.04274465    0.25000000   3       5  O
    0.24999999    0.54274464   -0.04274464   3       6  O
   -0.04274465    0.25000000    0.54274465   3       7  O
   -0.54274465    0.04274465   -0.24999999   3       8  O
   -0.24999999   -0.54274464    0.04274464   3       9  O
    0.04274465   -0.25000000   -0.54274465   3      10  O

outcell: Unit cell vectors (Ang):
        5.651190    0.017262    0.011300
        3.781110    4.199935    0.011300
        3.781110    1.690541    3.844692

outcell: Cell vector modules (Ang)   :    5.651228    5.651228    5.651228
outcell: Cell angles (23,13,12) (deg):     47.8289     47.8289     47.8289
outcell: Cell volume (Ang**3)        :     90.7870
 Folding of H and S is implicitly performed
New_DM. Step:    21
Initializing Density Matrix...

InitMesh: MESH =    24 x    24 x    24 =       13824
InitMesh: Mesh cutoff (required, used) =    50.000    63.833 Ry

siesta: Eharris(eV) =   -2968.893518


siesta: Eharris(eV) =   -2968.893518


siesta: Atomic forces (eV/Ang):
     1   -0.000000   -0.000000    0.000000
     2    0.000000   -0.000000    0.000000
     3   -0.000001   -0.000001    0.000005
     4    0.000002    0.000002   -0.000005
     5    1.037043   -2.319515    0.000014
     6   -0.000004    1.391584   -2.125816
[...]
----------------------------------------
   Tot   -0.000003   -0.000011    0.000020
----------------------------------------
   Max    1.615075
   Res    0.791194    sqrt( Sum f_i^2 / 3N )
----------------------------------------
   Max    1.615075    constrained

Stress-tensor-Voigt (kbar):     1040.85     1055.99     1058.15       -8.46       -2.48       -5.54
(Free)E + p*V (eV/cell)    -2991.0700
Target enthalpy (eV/cell)    -2933.8172

siesta: Stress tensor (static) (eV/Ang**3):
         0.655861   -0.015016   -0.009830
        -0.015016    0.682732   -0.004395
        -0.009830   -0.004395    0.686568

siesta: Pressure (static):      -1081.56660773  kBar

siesta: Stress tensor (total) (eV/Ang**3):
         0.649641   -0.005278   -0.003455
        -0.005278    0.659087   -0.001545
        -0.003455   -0.001545    0.660436

siesta: Pressure (total):      -1051.66082561  kBar

siesta: E_kin PR =   93061.217 K

siesta: Temp_ion =    1903.980 K

* Maximum dynamic memory allocated =     3 MB

siesta:                 ==============================
                            Begin MD step =     47
                        ==============================

outcoor: Atomic coordinates (fractional):                   
   -0.00000000   -0.00000000    0.00000000   1       1  Mg
    0.50000000    0.50000000    0.50000000   1       2  Mg
    0.24999999    0.24999998    0.25000002   2       3  C
   -0.24999999   -0.24999998   -0.25000002   2       4  C
    0.58120428   -0.08120428    0.24999999   3       5  O
    0.25000000    0.58120427   -0.08120427   3       6  O
   -0.08120429    0.24999999    0.58120431   3       7  O
   -0.58120428    0.08120427   -0.24999998   3       8  O
   -0.25000000   -0.58120427    0.08120428   3       9  O
    0.08120430   -0.25000000   -0.58120430   3      10  O

outcell: Unit cell vectors (Ang):
        5.522869    0.114879    0.075202
        3.768292    4.039215    0.075202
        3.768292    1.684810    3.671829

outcell: Cell vector modules (Ang)   :    5.524576    5.524576    5.524576
outcell: Cell angles (23,13,12) (deg):     45.7913     45.7913     45.7913
outcell: Cell volume (Ang**3)        :     78.9874
 Folding of H and S is implicitly performed
New_DM. Step:    47
Initializing Density Matrix...

InitMesh: MESH =    24 x    24 x    24 =       13824
InitMesh: Mesh cutoff (required, used) =    50.000    65.347 Ry

siesta: Eharris(eV) =   -2971.011532


siesta: Eharris(eV) =   -2971.011532


siesta: Atomic forces (eV/Ang):
     1   -0.000000   -0.000001    0.000000
     2    0.000000    0.000000   -0.000000
     3    0.000002   -0.000002   -0.000001
     4   -0.000002    0.000002    0.000003
     5   -0.788855    1.764368    0.000011
     6    0.000002   -1.058530    1.617037
     7    0.788853   -0.705841   -1.617031
     8    0.788852   -1.764369   -0.000007
     9    0.000006    1.058528   -1.617033
    10   -0.788852    0.705842    1.617033
----------------------------------------
   Tot    0.000005   -0.000002    0.000013
----------------------------------------
   Max    1.764369
   Res    0.864325    sqrt( Sum f_i^2 / 3N )
----------------------------------------
   Max    1.764369    constrained

Stress-tensor-Voigt (kbar):     1047.15     1065.58     1068.21      -10.29       -3.01       -6.74
(Free)E + p*V (eV/cell)    -2990.5586
Target enthalpy (eV/cell)    -2933.3556

siesta: Stress tensor (static) (eV/Ang**3):
         0.659712   -0.016033   -0.010495
        -0.016033    0.688403   -0.004693
        -0.010495   -0.004693    0.692500

siesta: Pressure (static):      -1089.82009325  kBar

siesta: Stress tensor (total) (eV/Ang**3):
         0.653575   -0.006425   -0.004206
        -0.006425    0.665074   -0.001881
        -0.004206   -0.001881    0.666716

siesta: Pressure (total):      -1060.31352674  kBar

siesta: E_kin PR =   98646.334 K

siesta: Temp_ion =    1858.660 K

* Maximum dynamic memory allocated =     3 MB

siesta:                 ==============================
                            Begin MD step =     48
                        ==============================

outcoor: Atomic coordinates (fractional):                   
   -0.00000000   -0.00000000    0.00000000   1       1  Mg
    0.50000000    0.50000000    0.50000000   1       2  Mg
    0.24999999    0.24999998    0.25000002   2       3  C
   -0.24999999   -0.24999998   -0.25000002   2       4  C
    0.58264753   -0.08264753    0.24999999   3       5  O
    0.25000000    0.58264752   -0.08264752   3       6  O
   -0.08264754    0.24999999    0.58264756   3       7  O
   -0.58264753    0.08264752   -0.24999998   3       8  O
   -0.25000000   -0.58264752    0.08264753   3       9  O
    0.08264754   -0.25000000   -0.58264755   3      10  O

outcell: Unit cell vectors (Ang):
        5.515402    0.120928    0.079161
        3.767820    4.029617    0.079161
        3.767820    1.684599    3.661449

outcell: Cell vector modules (Ang)   :    5.517296    5.517296    5.517296
outcell: Cell angles (23,13,12) (deg):     45.6620     45.6620     45.6620
outcell: Cell volume (Ang**3)        :     78.3084
 Folding of H and S is implicitly performed
New_DM. Step:    48
Initializing Density Matrix...

InitMesh: MESH =    24 x    24 x    24 =       13824
InitMesh: Mesh cutoff (required, used) =    50.000    65.431 Ry

siesta: Eharris(eV) =   -2971.072740


siesta: Eharris(eV) =   -2971.072740


siesta: Atomic forces (eV/Ang):
     1   -0.000000    0.000000    0.000000
     2   -0.000000   -0.000000    0.000000
     3   -0.000000    0.000004   -0.000001
     4   -0.000000   -0.000003    0.000003
     5   -0.892687    1.996629   -0.000000
     6   -0.000004   -1.197884    1.829887
     7    0.892696   -0.798758   -1.829895
     8    0.892686   -1.996630   -0.000005
     9    0.000002    1.197873   -1.829887
    10   -0.892695    0.798761    1.829902
----------------------------------------
   Tot   -0.000002   -0.000007    0.000003
----------------------------------------
   Max    1.996630
   Res    0.978102    sqrt( Sum f_i^2 / 3N )
----------------------------------------
   Max    1.996630    constrained

Stress-tensor-Voigt (kbar):     1053.13     1065.09     1066.80       -6.68       -1.96       -4.38
(Free)E + p*V (eV/cell)    -2989.6491
Target enthalpy (eV/cell)    -2932.8716

siesta: Stress tensor (static) (eV/Ang**3):
         0.663344   -0.013630   -0.008922
        -0.013630    0.687735   -0.003989
        -0.008922   -0.003989    0.691217

siesta: Pressure (static):      -1090.71829494  kBar

siesta: Stress tensor (total) (eV/Ang**3):
         0.657304   -0.004172   -0.002731
        -0.004172    0.664770   -0.001221
        -0.002731   -0.001221    0.665836

siesta: Pressure (total):      -1061.67191510  kBar

siesta: E_kin PR =  104389.385 K

siesta: Temp_ion =    1807.544 K

* Maximum dynamic memory allocated =     3 MB

siesta:                 ==============================
                            Begin MD step =     49
                        ==============================

outcoor: Atomic coordinates (fractional):                   
   -0.00000000   -0.00000000    0.00000000   1       1  Mg
    0.50000000    0.50000000    0.50000000   1       2  Mg
    0.24999999    0.24999998    0.25000002   2       3  C
   -0.24999999   -0.24999998   -0.25000002   2       4  C
    0.58407491   -0.08407491    0.24999999   3       5  O
    0.25000000    0.58407490   -0.08407490   3       6  O
   -0.08407493    0.24999999    0.58407494   3       7  O
   -0.58407491    0.08407490   -0.24999998   3       8  O
   -0.25000000   -0.58407491    0.08407491   3       9  O
    0.08407493   -0.25000000   -0.58407493   3      10  O

outcell: Unit cell vectors (Ang):
        5.507738    0.127159    0.083240
        3.767354    4.019751    0.083240
        3.767354    1.684390    3.650775

outcell: Cell vector modules (Ang)   :    5.509835    5.509835    5.509835
outcell: Cell angles (23,13,12) (deg):     45.5284     45.5284     45.5284
outcell: Cell volume (Ang**3)        :     77.6136
 Folding of H and S is implicitly performed
New_DM. Step:    49
Initializing Density Matrix...

InitMesh: MESH =    24 x    24 x    24 =       13824
InitMesh: Mesh cutoff (required, used) =    50.000    65.517 Ry

siesta: Eharris(eV) =   -2971.126263


siesta: Eharris(eV) =   -2971.126263


siesta: Atomic forces (eV/Ang):
     1   -0.000000   -0.000000    0.000000
     2   -0.000000   -0.000000    0.000000
     3   -0.000001   -0.000001    0.000004
     4    0.000002   -0.000001   -0.000001
     5   -0.959676    2.146456    0.000003
     6   -0.000007   -1.287757    1.967213
     7    0.959674   -0.858695   -1.967217
     8    0.959679   -2.146449   -0.000002
     9    0.000011    1.287757   -1.967215
    10   -0.959675    0.858697    1.967213
----------------------------------------
   Tot    0.000007    0.000007   -0.000002
----------------------------------------
   Max    2.146456
   Res    1.051499    sqrt( Sum f_i^2 / 3N )
----------------------------------------
   Max    2.146456    constrained

Stress-tensor-Voigt (kbar):     1059.02     1077.49     1080.13      -10.32       -3.02       -6.76
(Free)E + p*V (eV/cell)    -2989.1513
Target enthalpy (eV/cell)    -2932.3668

siesta: Stress tensor (static) (eV/Ang**3):
         0.666909   -0.015719   -0.010290
        -0.015719    0.695039   -0.004601
        -0.010290   -0.004601    0.699055

siesta: Pressure (static):      -1100.70895542  kBar

siesta: Stress tensor (total) (eV/Ang**3):
         0.660983   -0.006442   -0.004217
        -0.006442    0.672511   -0.001885
        -0.004217   -0.001885    0.674157

siesta: Pressure (total):      -1072.21602735  kBar

siesta: E_kin PR =  110297.111 K

siesta: Temp_ion =    1750.865 K

* Maximum dynamic memory allocated =     3 MB

siesta:                 ==============================
                            Begin MD step =     50
                        ==============================

outcoor: Atomic coordinates (fractional):                   
   -0.00000000   -0.00000000    0.00000000   1       1  Mg
    0.50000000    0.50000000    0.50000000   1       2  Mg
    0.24999999    0.24999998    0.25000002   2       3  C
   -0.24999999   -0.24999998   -0.25000002   2       4  C
    0.58548448   -0.08548448    0.24999999   3       5  O
    0.25000000    0.58548446   -0.08548447   3       6  O
   -0.08548449    0.24999999    0.58548451   3       7  O
   -0.58548448    0.08548447   -0.24999998   3       8  O
   -0.25000000   -0.58548447    0.08548448   3       9  O
    0.08548449   -0.25000000   -0.58548450   3      10  O

outcell: Unit cell vectors (Ang):
        5.499877    0.133574    0.087440
        3.766893    4.009615    0.087440
        3.766893    1.684184    3.639805

outcell: Cell vector modules (Ang)   :    5.502194    5.502194    5.502194
outcell: Cell angles (23,13,12) (deg):     45.3904     45.3904     45.3904
outcell: Cell volume (Ang**3)        :     76.9031
 Folding of H and S is implicitly performed
New_DM. Step:    50
Initializing Density Matrix...

InitMesh: MESH =    24 x    24 x    24 =       13824
InitMesh: Mesh cutoff (required, used) =    50.000    65.606 Ry

siesta: Eharris(eV) =   -2971.183264


siesta: Eharris(eV) =   -2971.183264


siesta: Atomic forces (eV/Ang):
     1    0.000000   -0.000000    0.000000
     2    0.000000   -0.000001    0.000000
     3   -0.000001    0.000002   -0.000002
     4    0.000000   -0.000004    0.000004
     5   -1.042785    2.332329   -0.000005
     6    0.000010   -1.399281    2.137570
     7    1.042781   -0.933045   -2.137572
     8    1.042787   -2.332323    0.000003
     9   -0.000017    1.399289   -2.137574
    10   -1.042790    0.933050    2.137568
----------------------------------------
   Tot   -0.000015    0.000016   -0.000008
----------------------------------------
   Max    2.332329
   Res    1.142557    sqrt( Sum f_i^2 / 3N )
----------------------------------------
   Max    2.332329    constrained

Stress-tensor-Voigt (kbar):     1077.76     1118.79     1124.65      -22.93       -6.71      -15.01
(Free)E + p*V (eV/cell)    -2989.7978
Target enthalpy (eV/cell)    -2931.8602

siesta: Stress tensor (static) (eV/Ang**3):
         0.678469   -0.023378   -0.015303
        -0.023378    0.720304   -0.006842
        -0.015303   -0.006842    0.726277

siesta: Pressure (static):      -1134.91453028  kBar

siesta: Stress tensor (total) (eV/Ang**3):
         0.672678   -0.014311   -0.009368
        -0.014311    0.698287   -0.004188
        -0.009368   -0.004188    0.701944

siesta: Pressure (total):      -1107.06755370  kBar

siesta: E_kin PR =  116487.376 K

siesta: Temp_ion =    1689.673 K

* Maximum dynamic memory allocated =     3 MB

outcell: Unit cell vectors (Ang):
        5.491815    0.140182    0.091765
        3.766441    3.999200    0.091765
        3.766441    1.683982    3.628530

outcell: Cell vector modules (Ang)   :    5.494370    5.494370    5.494370
outcell: Cell angles (23,13,12) (deg):     45.2480     45.2480     45.2480
outcell: Cell volume (Ang**3)        :     76.1767

siesta: Program's energy decomposition (eV):
siesta: Ebs     =      -736.099992
siesta: Eions   =      5228.674091
siesta: Ena     =      1092.841593
siesta: Ekin    =      2411.129954
siesta: Enl     =      -399.387049
siesta: DEna    =      -121.413063
siesta: DUscf   =        36.081409
siesta: DUext   =         0.000000
siesta: Exc     =      -727.238795
siesta: eta*DQ  =         0.000000
siesta: Emadel  =         0.000000
siesta: Emeta   =         0.000000
siesta: Emolmec =         0.000000
siesta: Ekinion =         1.965588
siesta: Eharris =     -2969.217676
siesta: Etot    =     -2934.694454
siesta: FreeEng =     -2934.694454

siesta: Final energy (eV):
siesta:  Band Struct. =    -736.099992
siesta:       Kinetic =    2411.129954
siesta:       Hartree =     894.739028
siesta:    Ext. field =       0.000000
siesta:   Exch.-corr. =    -727.238795
siesta:  Ion-electron =   -3750.353313
siesta:       Ion-ion =   -1764.936917
siesta:       Ekinion =       1.965588
siesta:         Total =   -2934.694454

siesta: Atomic forces (eV/Ang):
siesta:      1    0.000000   -0.000000    0.000000
siesta:      2    0.000000   -0.000001    0.000000
siesta:      3   -0.000001    0.000002   -0.000002
siesta:      4    0.000000   -0.000004    0.000004
siesta:      5   -1.042785    2.332329   -0.000005
siesta:      6    0.000010   -1.399281    2.137570
siesta:      7    1.042781   -0.933045   -2.137572
siesta:      8    1.042787   -2.332323    0.000003
siesta:      9   -0.000017    1.399289   -2.137574
siesta:     10   -1.042790    0.933050    2.137568
siesta: ----------------------------------------
siesta:    Tot   -0.000015    0.000016   -0.000008

siesta: Stress tensor (static) (eV/Ang**3):
siesta:     0.678469   -0.023378   -0.015303
siesta:    -0.023378    0.720304   -0.006842
siesta:    -0.015303   -0.006842    0.726277

siesta: Cell volume =         76.903104 Ang**3

siesta: Pressure (static):
siesta:                Solid            Molecule  Units
siesta:          -0.00771484         -0.00668407  Ry/Bohr**3
siesta:          -0.70835028         -0.61370895  eV/Ang**3
siesta:       -1134.91453028       -983.28076503  kBar
(Free)E+ p_basis*V_orbitals  =       -2935.465745
(Free)Eharris+ p_basis*V_orbitals  =       -2919.595486

* Maximum dynamic memory allocated : Node    0 =     3 MB
* Maximum dynamic memory allocated : Node    1 =     3 MB
* Maximum dynamic memory allocated : Node    2 =     3 MB
* Maximum dynamic memory allocated : Node    3 =     3 MB

* Maximum memory occured during allocate_old_arrays           

timer: CPU execution times:
timer:  Routine       Calls   Time/call    Tot.time        %
timer:  siesta            1      31.533      31.533   100.00
timer:  Setup             1       1.591       1.591     5.04
timer:  bands             1       0.000       0.000     0.00
timer:  writewave         1       0.004       0.004     0.01
timer:  KSV_init          1       0.000       0.000     0.00
timer:  IterMD           50       0.598      29.907    94.84
timer:  hsparse          50       0.025       1.265     4.01
timer:  overlap          50       0.005       0.228     0.72
timer:  IterSCF          50       0.315      15.749    49.94
timer:  kinefsm         100       0.004       0.375     1.19
timer:  nlefsm          100       0.033       3.284    10.41
timer:  DHSCF           100       0.199      19.886    63.06
timer:  DHSCF1           50       0.096       4.800    15.22
timer:  DHSCF2           50       0.101       5.034    15.96
timer:  REORD           900       0.000       0.058     0.18
timer:  POISON          150       0.003       0.525     1.66
timer:  DHSCF3          100       0.043       4.313    13.68
timer:  rhoofd          100       0.020       2.050     6.50
timer:  cellXC          150       0.006       0.842     2.67
timer:  vmat            100       0.012       1.181     3.74
timer:  MolMec          100       0.000       0.001     0.00
timer:  diagon           50       0.009       0.454     1.44
timer:  r-eigvec         50       0.009       0.435     1.38
timer:  r-buildHS        50       0.000       0.000     0.00
timer:  rdiag            50       0.009       0.434     1.38
timer:  rdiag1           50       0.000       0.015     0.05
timer:  rdiag2           50       0.001       0.041     0.13
timer:  rdiag3           50       0.007       0.358     1.14
timer:  rdiag4           50       0.000       0.009     0.03
timer:  r-buildD         50       0.000       0.018     0.06
timer:  DHSCF4           50       0.115       5.725    18.16
timer:  dfscf            50       0.079       3.973    12.60
timer:  overfsm          50       0.004       0.176     0.56
timer:  optical           1       0.026       0.026     0.08
  

elaps: ELAPSED times:
elaps:  Routine       Calls   Time/call    Tot.time        %
elaps:  siesta            1       7.938       7.938    99.99
elaps:  Setup             1       0.399       0.399     5.03
elaps:  bands             1       0.000       0.000     0.00
elaps:  writewave         1       0.001       0.001     0.01
elaps:  KSV_init          1       0.000       0.000     0.00
elaps:  IterMD           50       0.151       7.529    94.84
elaps:  hsparse          50       0.008       0.394     4.96
elaps:  overlap          50       0.001       0.067     0.84
elaps:  IterSCF          50       0.077       3.830    48.24
elaps:  kinefsm         100       0.001       0.114     1.44
elaps:  nlefsm          100       0.010       1.048    13.20
elaps:  DHSCF           100       0.050       4.975    62.67
elaps:  DHSCF1           50       0.024       1.185    14.93
elaps:  DHSCF2           50       0.026       1.276    16.07
elaps:  REORD           900       0.000       0.000     0.00
elaps:  POISON          150       0.001       0.146     1.84
elaps:  DHSCF3          100       0.011       1.086    13.68
elaps:  rhoofd          100       0.005       0.532     6.70
elaps:  cellXC          150       0.001       0.213     2.68
elaps:  vmat            100       0.003       0.301     3.79
elaps:  MolMec          100       0.000       0.001     0.01
elaps:  diagon           50       0.002       0.115     1.45
elaps:  r-eigvec         50       0.002       0.111     1.40
elaps:  r-buildHS        50       0.000       0.001     0.01
elaps:  rdiag            50       0.002       0.110     1.39
elaps:  rdiag1           50       0.000       0.005     0.06
elaps:  rdiag2           50       0.000       0.006     0.08
elaps:  rdiag3           50       0.002       0.092     1.16
elaps:  rdiag4           50       0.000       0.004     0.05
elaps:  r-buildD         50       0.000       0.004     0.05
elaps:  DHSCF4           50       0.029       1.426    17.96
elaps:  dfscf            50       0.020       0.989    12.46
elaps:  overfsm          50       0.001       0.053     0.67
elaps:  optical           1       0.000       0.000     0.00
  
>> End of run:  24-MAR-2013  18:29:35
