Siesta Version  : v4.1-b4-351
Architecture    : x86_64-linux-n-62-26-19
Compiler version: GNU Fortran (GCC) 9.3.0
Compiler flags  : mpifort -m64 -fPIC -O3 -march=native -ftree-vectorize -fexpensive-optimizatioons -funroll-loops -fprefetch-loop-arrays -fno-second-underscore  -flto
PP flags        : -I/dtu/sw/dcc/SL73/2020-aug/generic/build-tools/1.0/include -I/dtu/sw/dcc/SL773/2020-aug/generic/gcc/9.3.0/include -I/dtu/sw/dcc/SL73/2020-aug/generic/gcc/9.3.0/include -I/dtu/sw/dcc/SL73/2020-aug/XeonE5-2660v3/gnu/9.3.0/zlib/1.2.11/include -I/dtu/sw/dcc/SL73/2020-aug/generic/numactl/2.0.12/include -I/dtu/sw/dcc/SL73/2020-aug/XeonE5-2660v3/gnu/9.3.0/libxml2/2.9.10/include -I/dtu/sw/dcc/SL73/2020-aug/XeonE5-2660v3/gnu/9.3.0/hwloc/2.2.0/include -I/dtu/sw/dcc/SL73/2020-aug/XeonE5-2660v3/gnu/9.3.0/knem/1.1.4/include -I/dtu/sw/dcc/SL73/2020-aug/XeonE5-2660v3/gnu/9.3.0/ucx/1.8.1/include -I/dtu/sw/dcc/SL73/2020-aug/XeonE5-2660v3/gnu/9.3.0/openmpi/4.0.4/include -I/dtu/sw/dcc/SL73/2020-aug/XeonE5-2660v3/gnu/9.3.0/szip/2.1.1/include -I/dtu/sw/dcc/SL73/2020-aug/XeonE5-2660v3/gnu/9.3.0/hdf5/1.12.0/include -I/dtu/sw/dcc/SL73/2020-aug/XeonE5-2660v3/gnu/9.3.0/pnetcdf/1.12.1/include -I/dtu/sw/dcc/SL73/2020-aug/generic/gen-zlib/1.2.11/include -I/dtu/sw/dcc/SL73/2020-aug/generic/openssl/1.1.1/include -I/dtu/sw/dcc/SL73/2020-aug/generic/libssh2/1.8.2/include -I/dtu/sw/dcc/SL73/2020-aug/generic/curl/7.65.1/include -I/dtu/sw/dcc/SL73/2020-aug/XeonE5-2660v3/gnu/9.3.0/netcdf/4.7.4/include -I/dtu/sw/dcc/SL73/2020-aug/XeonE5-2660v3/gnu/9.3.0/flook/0.8.1/include -I/dtu/sw/dcc/SL73/2020-aug/XeonE5-2660v3/gnu/9.3.0/fftw/3.3.8/include -I/dtu/sw/dcc/SL73/2020-aug/XeonE5-2660v3/gnu/9.3.0/parmetis/4.0.3/include -I/dtu/sw/dcc/SL73/2020-aug/XeonE5-2660v3/gnu/9.3.0/scalapack/2.1.0/include -I/dtu/sw/dcc/SL73/2020-aug/XeonE5-2660v3/gnu/9.3.0/lapack/3.9.0/include -I/dtu/sw/dcc/SL73/2020-aug/XeonE5-2660v3/gnu/9.3.0/blis/0.7.0/include -I/dtu/sw/dcc/SL73/2020-aug/XeonE5-2660v3/gnu/9.3.0/scotch/6.0.9/include -I/dtu/sw/dcc/SL73/2020-aug/XeonE5-2660v3/gnu/9.3.0/mumps/5.3.3/include -I/dtu/sw/dcc/SL73/2020-aug/XeonE5-2660v3/gnu/9.3.0/elpa/2020.05.001/include -DSIESTA__ELPA -DMPI -DFC_HAVE_FLUSH -DFC_HAVE_ABORT -DCDF -DCDF4 -DSIESTA__FLOOK  -DNCDF -DNCDF_4 -DNCDF_PARALLEL -DTS_NOCHECKS -DSIESTA__METIS -DSIESTA__MUMPS -DSIESTA__MRRR -I/dtu/sw/dcc/SL73/2020-aug/XeonE5-2660v3/gnu/9.3.0/elpa/2020.05.001/include/elpa
Libraries       : libncdf.a libfdict.a -lnetcdff -lnetcdf -lpnetcdf -lhdf5_hl -lhdf5 -lz  -lzmuumps -lmumps_common -lesmumps -lscotch -lscotcherr -lpord -lparmetis -lmetis -lelpa -lscalapack -llapack -lblis  -L/dtu/sw/dcc/SL73/2020-aug/XeonE5-2660v3/gnu/9.3.0/flook/0.8.1/lib -Wl,-rpath=/dtu/sw/dcc/SL73/2020-aug/XeonE5-2660v3/gnu/9.3.0/flook/0.8.1/lib -lflookall -ldl  -flto -fuse-linker-plugin  -lmetis
PARALLEL version
NetCDF support
NetCDF-4 support
NetCDF-4 MPI-IO support
METIS ordering support
Lua support

* Running on 8 nodes in parallel
>> Start of run:  22-JAN-2021  23:13:31

                           ***********************       
                           *  WELCOME TO SIESTA  *       
                           ***********************       

reinit: Reading from ../md_verlet.fdf

reinit: -----------------------------------------------------------------------
reinit: System Name: MgCo3 MD Verlet test -- SZ, 100 Ry
reinit: -----------------------------------------------------------------------
reinit: System Label: md_verlet
reinit: -----------------------------------------------------------------------

initatom: Reading input for the pseudopotentials and atomic orbitals ----------
Species number:   1 Atomic number:   12 Label: Mg
Species number:   2 Atomic number:    6 Label: C
Species number:   3 Atomic number:    8 Label: O

Ground state valence configuration:   3s02
Reading pseudopotential information in formatted form from Mg.psf

Valence configuration for pseudopotential generation:
3s( 2.00) rc: 2.59
3p( 0.00) rc: 2.59
3d( 0.00) rc: 2.59
4f( 0.00) rc: 2.59
Ground state valence configuration:   2s02  2p02
Reading pseudopotential information in formatted form from C.psf

Valence configuration for pseudopotential generation:
2s( 2.00) rc: 1.49
2p( 2.00) rc: 1.52
3d( 0.00) rc: 1.58
Ground state valence configuration:   2s02  2p04
Reading pseudopotential information in formatted form from O.psf

Valence configuration for pseudopotential generation:
2s( 2.00) rc: 1.14
2p( 4.00) rc: 1.14
3d( 0.00) rc: 1.14
4f( 0.00) rc: 1.14
For Mg, standard SIESTA heuristics set lmxkb to 1
 (one more than the basis l, including polarization orbitals).
Use PS.lmax or PS.KBprojectors blocks to override.
For C, standard SIESTA heuristics set lmxkb to 2
 (one more than the basis l, including polarization orbitals).
Use PS.lmax or PS.KBprojectors blocks to override.
For O, standard SIESTA heuristics set lmxkb to 2
 (one more than the basis l, including polarization orbitals).
Use PS.lmax or PS.KBprojectors blocks to override.

<basis_specs>
===============================================================================
Mg                   Z=  12    Mass=  24.310        Charge= 0.17977+309
Lmxo=0 Lmxkb= 1    BasisType=split      Semic=F
L=0  Nsemic=0  Cnfigmx=3
          i=1  nzeta=1  polorb=0  (3s)
            splnorm:   0.15000    
               vcte:    0.0000    
               rinn:    0.0000    
               qcoe:    0.0000    
               qyuk:    0.0000    
               qwid:   0.10000E-01
                rcs:    0.0000    
            lambdas:    1.0000    
-------------------------------------------------------------------------------
L=0  Nkbl=1  erefs: 0.17977+309
L=1  Nkbl=1  erefs: 0.17977+309
===============================================================================
</basis_specs>

atom: Called for Mg                    (Z =  12)

read_vps: Pseudopotential generation method:
read_vps: ATM3      Troullier-Martins                       
Valence charge for ps generation:    2.00000

xc_check: Exchange-correlation functional:
xc_check: Ceperley-Alder
V l=0 = -2*Zval/r beyond r=  3.5878
V l=1 = -2*Zval/r beyond r=  3.5878
All V_l potentials equal beyond r=  2.5600
This should be close to max(r_c) in ps generation
All pots = -2*Zval/r beyond r=  3.5878
Using large-core scheme for Vlocal

atom: Estimated core radius    3.58779

atom: Including non-local core corrections could be a good idea
atom: Maximum radius for 4*pi*r*r*local-pseudopot. charge    3.91588
atom: Maximum radius for r*vlocal+2*Zval:    3.63292
GHOST: No ghost state for L =  0
GHOST: No ghost state for L =  1

KBgen: Kleinman-Bylander projectors: 
   l= 0   rc=  2.657845   el= -0.351328   Ekb=  2.184400   kbcos=  0.257081
   l= 1   rc=  2.657845   el= -0.101748   Ekb=  0.525536   kbcos=  0.270508

KBgen: Total number of  Kleinman-Bylander projectors:    4
atom: -------------------------------------------------------------------------

atom: SANKEY-TYPE ORBITALS:

SPLIT: Orbitals with angular momentum L= 0

SPLIT: Basis orbitals for state 3s

SPLIT: PAO cut-off radius determined from an
SPLIT: energy shift=  0.020000 Ry

   izeta = 1
                 lambda =    1.000000
                     rc =    6.619780
                 energy =   -0.332103
                kinetic =    0.289627
    potential(screened) =   -0.621729
       potential(ionic) =   -1.387191
atom: Total number of Sankey-type orbitals:  1

atm_pop: Valence configuration (for local Pseudopot. screening):
 3s( 2.00)                                                            
Vna: chval, zval:    2.00000   2.00000

Vna:  Cut-off radius for the neutral-atom potential:   6.619780

atom: _________________________________________________________________________

<basis_specs>
===============================================================================
C                    Z=   6    Mass=  12.010        Charge= 0.17977+309
Lmxo=1 Lmxkb= 2    BasisType=split      Semic=F
L=0  Nsemic=0  Cnfigmx=2
          i=1  nzeta=1  polorb=0  (2s)
            splnorm:   0.15000    
               vcte:    0.0000    
               rinn:    0.0000    
               qcoe:    0.0000    
               qyuk:    0.0000    
               qwid:   0.10000E-01
                rcs:    0.0000    
            lambdas:    1.0000    
L=1  Nsemic=0  Cnfigmx=2
          i=1  nzeta=1  polorb=0  (2p)
            splnorm:   0.15000    
               vcte:    0.0000    
               rinn:    0.0000    
               qcoe:    0.0000    
               qyuk:    0.0000    
               qwid:   0.10000E-01
                rcs:    0.0000    
            lambdas:    1.0000    
-------------------------------------------------------------------------------
L=0  Nkbl=1  erefs: 0.17977+309
L=1  Nkbl=1  erefs: 0.17977+309
L=2  Nkbl=1  erefs: 0.17977+309
===============================================================================
</basis_specs>

atom: Called for C                     (Z =   6)

read_vps: Pseudopotential generation method:
read_vps: ATM3      Troullier-Martins                       
Valence charge for ps generation:    4.00000

xc_check: Exchange-correlation functional:
xc_check: Ceperley-Alder
V l=0 = -2*Zval/r beyond r=  1.4666
V l=1 = -2*Zval/r beyond r=  1.5038
V l=2 = -2*Zval/r beyond r=  1.5612
All V_l potentials equal beyond r=  1.5612
This should be close to max(r_c) in ps generation
All pots = -2*Zval/r beyond r=  1.5612

VLOCAL1: 99.0% of the norm of Vloc inside     17.809 Ry
VLOCAL1: 99.9% of the norm of Vloc inside     40.586 Ry
atom: Maximum radius for 4*pi*r*r*local-pseudopot. charge    1.88329
atom: Maximum radius for r*vlocal+2*Zval:    1.62091
GHOST: No ghost state for L =  0
GHOST: No ghost state for L =  1
GHOST: No ghost state for L =  2

KBgen: Kleinman-Bylander projectors: 
   l= 0   rc=  1.747182   el= -1.001947   Ekb=  5.181700   kbcos=  0.300603
   l= 1   rc=  1.747182   el= -0.398598   Ekb= -4.328763   kbcos= -0.367074
   l= 2   rc=  1.955272   el=  0.002326   Ekb= -1.016175   kbcos= -0.009979

KBgen: Total number of  Kleinman-Bylander projectors:    9
atom: -------------------------------------------------------------------------

atom: SANKEY-TYPE ORBITALS:

SPLIT: Orbitals with angular momentum L= 0

SPLIT: Basis orbitals for state 2s

SPLIT: PAO cut-off radius determined from an
SPLIT: energy shift=  0.020000 Ry

   izeta = 1
                 lambda =    1.000000
                     rc =    4.191849
                 energy =   -0.983897
                kinetic =    0.886956
    potential(screened) =   -1.870853
       potential(ionic) =   -5.479661

SPLIT: Orbitals with angular momentum L= 1

SPLIT: Basis orbitals for state 2p

SPLIT: PAO cut-off radius determined from an
SPLIT: energy shift=  0.020000 Ry

   izeta = 1
                 lambda =    1.000000
                     rc =    4.870301
                 energy =   -0.379093
                kinetic =    2.545357
    potential(screened) =   -2.924450
       potential(ionic) =   -6.433151
atom: Total number of Sankey-type orbitals:  4

atm_pop: Valence configuration (for local Pseudopot. screening):
 2s( 2.00)                                                            
 2p( 2.00)                                                            
Vna: chval, zval:    4.00000   4.00000

Vna:  Cut-off radius for the neutral-atom potential:   4.870301

atom: _________________________________________________________________________

<basis_specs>
===============================================================================
O                    Z=   8    Mass=  16.000        Charge= 0.17977+309
Lmxo=1 Lmxkb= 2    BasisType=split      Semic=F
L=0  Nsemic=0  Cnfigmx=2
          i=1  nzeta=1  polorb=0  (2s)
            splnorm:   0.15000    
               vcte:    0.0000    
               rinn:    0.0000    
               qcoe:    0.0000    
               qyuk:    0.0000    
               qwid:   0.10000E-01
                rcs:    0.0000    
            lambdas:    1.0000    
L=1  Nsemic=0  Cnfigmx=2
          i=1  nzeta=1  polorb=0  (2p)
            splnorm:   0.15000    
               vcte:    0.0000    
               rinn:    0.0000    
               qcoe:    0.0000    
               qyuk:    0.0000    
               qwid:   0.10000E-01
                rcs:    0.0000    
            lambdas:    1.0000    
-------------------------------------------------------------------------------
L=0  Nkbl=1  erefs: 0.17977+309
L=1  Nkbl=1  erefs: 0.17977+309
L=2  Nkbl=1  erefs: 0.17977+309
===============================================================================
</basis_specs>

atom: Called for O                     (Z =   8)

read_vps: Pseudopotential generation method:
read_vps: ATM3      Troullier-Martins                       
Valence charge for ps generation:    6.00000

xc_check: Exchange-correlation functional:
xc_check: Ceperley-Alder
V l=0 = -2*Zval/r beyond r=  1.1278
V l=1 = -2*Zval/r beyond r=  1.1278
V l=2 = -2*Zval/r beyond r=  1.1278
All V_l potentials equal beyond r=  1.1278
This should be close to max(r_c) in ps generation
All pots = -2*Zval/r beyond r=  1.1278

VLOCAL1: 99.0% of the norm of Vloc inside     34.126 Ry
VLOCAL1: 99.9% of the norm of Vloc inside     77.774 Ry
atom: Maximum radius for 4*pi*r*r*local-pseudopot. charge    1.37759
atom: Maximum radius for r*vlocal+2*Zval:    1.18566
GHOST: No ghost state for L =  0
GHOST: No ghost state for L =  1
GHOST: No ghost state for L =  2

KBgen: Kleinman-Bylander projectors: 
   l= 0   rc=  1.294105   el= -1.742414   Ekb=  9.135903   kbcos=  0.326910
   l= 1   rc=  1.294105   el= -0.676589   Ekb= -8.124878   kbcos= -0.395047
   l= 2   rc=  1.448233   el=  0.002386   Ekb= -2.039267   kbcos= -0.003484

KBgen: Total number of  Kleinman-Bylander projectors:    9
atom: -------------------------------------------------------------------------

atom: SANKEY-TYPE ORBITALS:

SPLIT: Orbitals with angular momentum L= 0

SPLIT: Basis orbitals for state 2s

SPLIT: PAO cut-off radius determined from an
SPLIT: energy shift=  0.020000 Ry

   izeta = 1
                 lambda =    1.000000
                     rc =    3.305093
                 energy =   -1.723766
                kinetic =    1.614911
    potential(screened) =   -3.338677
       potential(ionic) =  -11.304675

SPLIT: Orbitals with angular momentum L= 1

SPLIT: Basis orbitals for state 2p

SPLIT: PAO cut-off radius determined from an
SPLIT: energy shift=  0.020000 Ry

   izeta = 1
                 lambda =    1.000000
                     rc =    3.937239
                 energy =   -0.658841
                kinetic =    5.005986
    potential(screened) =   -5.664827
       potential(ionic) =  -13.452360
atom: Total number of Sankey-type orbitals:  4

atm_pop: Valence configuration (for local Pseudopot. screening):
 2s( 2.00)                                                            
 2p( 4.00)                                                            
Vna: chval, zval:    6.00000   6.00000

Vna:  Cut-off radius for the neutral-atom potential:   3.937239

atom: _________________________________________________________________________

prinput: Basis input ----------------------------------------------------------

PAO.BasisType split     

%block ChemicalSpeciesLabel
    1   12 Mg                      # Species index, atomic number, species label
    2    6 C                       # Species index, atomic number, species label
    3    8 O                       # Species index, atomic number, species label
%endblock ChemicalSpeciesLabel

%block PAO.Basis                 # Define Basis set
Mg                    1                    # Species label, number of l-shells
 n=3   0   1                         # n, l, Nzeta 
   6.620   
   1.000   
C                     2                    # Species label, number of l-shells
 n=2   0   1                         # n, l, Nzeta 
   4.192   
   1.000   
 n=2   1   1                         # n, l, Nzeta 
   4.870   
   1.000   
O                     2                    # Species label, number of l-shells
 n=2   0   1                         # n, l, Nzeta 
   3.305   
   1.000   
 n=2   1   1                         # n, l, Nzeta 
   3.937   
   1.000   
%endblock PAO.Basis

prinput: ----------------------------------------------------------------------

Dumping basis to NetCDF file Mg.ion.nc
Dumping basis to NetCDF file C.ion.nc
Dumping basis to NetCDF file O.ion.nc
coor:   Atomic-coordinates input format  =     Fractional

siesta: WARNING: XV file not found

siesta: Atomic coordinates (Bohr) and species
siesta:      0.00000   0.00000   0.00000  1        1
siesta:     12.51930   5.59740   3.66414  1        2
siesta:      6.25965   2.79870   1.83207  2        3
siesta:     -6.25965  -2.79870  -1.83207  2        4
siesta:      7.25136   0.58061   1.83207  3        5
siesta:      6.25965   4.12944  -0.20079  3        6
siesta:      5.26794   3.68605   3.86493  3        7
siesta:     -7.25136  -0.58061  -1.83207  3        8
siesta:     -6.25965  -4.12944   0.20079  3        9
siesta:     -5.26794  -3.68605  -3.86493  3       10

siesta: System type = bulk      

initatomlists: Number of atoms, orbitals, and projectors:     10    34    80

siesta: ******************** Simulation parameters ****************************
siesta:
siesta: The following are some of the parameters of the simulation.
siesta: A complete list of the parameters used, including default values,
siesta: can be found in file out.fdf
siesta:
redata: Spin configuration                          = none
redata: Number of spin components                   = 1
redata: Time-Reversal Symmetry                      = T
redata: Spin spiral                                 = F
redata: Long output                                 =   F
redata: Number of Atomic Species                    =        3
redata: Charge density info will appear in .RHO file
redata: Write Mulliken Pop.                         = NO
redata: Matel table size (NRTAB)                    =     1024
redata: Mesh Cutoff                                 =   100.0000 Ry
redata: Net charge of the system                    =     0.0000 |e|
redata: Min. number of SCF Iter                     =        0
redata: Max. number of SCF Iter                     =     1000
redata: SCF convergence failure will abort job
redata: SCF mix quantity                            = Hamiltonian
redata: Mix DM or H after convergence               =   F
redata: Recompute H after scf cycle                 =   F
redata: Mix DM in first SCF step                    =   T
redata: Write Pulay info on disk                    =   F
redata: New DM Occupancy tolerance                  = 0.000000000001
redata: No kicks to SCF
redata: DM Mixing Weight for Kicks                  =     0.5000
redata: Require Harris convergence for SCF          =   F
redata: Harris energy tolerance for SCF             =     0.000100 eV
redata: Require DM convergence for SCF              =   T
redata: DM tolerance for SCF                        =     0.000100
redata: Require EDM convergence for SCF             =   F
redata: EDM tolerance for SCF                       =     0.001000 eV
redata: Require H convergence for SCF               =   T
redata: Hamiltonian tolerance for SCF               =     0.001000 eV
redata: Require (free) Energy convergence for SCF   =   F
redata: (free) Energy tolerance for SCF             =     0.000100 eV
redata: Using Saved Data (generic)                  =   F
redata: Use continuation files for DM               =   F
redata: Neglect nonoverlap interactions             =   F
redata: Method of Calculation                       = Diagonalization
redata: Electronic Temperature                      =   299.9869 K
redata: Fix the spin of the system                  =   F
redata: Dynamics option                             = Verlet MD run
redata: Initial MD time step                        =        1
redata:   Final MD time step                        =        5
redata: Length of MD time step                      =     1.0000 fs
redata: Initial Temperature of MD run               =   600.0000 K
redata: Perform a MD quench                         =   F
mix.SCF: Pulay mixing                            = Pulay
mix.SCF:    Variant                              = stable
mix.SCF:    History steps                        = 2
mix.SCF:    Linear mixing weight                 =     0.250000
mix.SCF:    Mixing weight                        =     0.250000
mix.SCF:    SVD condition                        = 0.1000E-07
redata: Save all siesta data in one NC              =   F
redata: ***********************************************************************

%block SCF.Mixers
  Pulay
%endblock SCF.Mixers

%block SCF.Mixer.Pulay
  # Mixing method
  method pulay
  variant stable

  # Mixing options
  weight 0.2500
  weight.linear 0.2500
  history 2
%endblock SCF.Mixer.Pulay

Size of DM history Fstack: 1
Total number of electrons:    48.000000
Total ionic charge:    48.000000

* ProcessorY, Blocksize:    2   4


* Orbital distribution balance (max,min):     6     4

 Kpoints in:            1 . Kpoints trimmed:            1

siesta: k-grid: Number of k-points =     1
siesta: k-grid: Cutoff (effective) =     2.317 Ang
siesta: k-grid: Supercell and displacements
siesta: k-grid:    1   0   0      0.000
siesta: k-grid:    0   1   0      0.000
siesta: k-grid:    0   0   1      0.000

diag: Algorithm                                     = D&C
diag: Parallel over k                               =   F
diag: Use parallel 2D distribution                  =   T
diag: Parallel block-size                           = 4
diag: Parallel distribution                         =     2 x     4
diag: Used triangular part                          = Lower
diag: Absolute tolerance                            =  0.100E-15
diag: Orthogonalization factor                      =  0.100E-05
diag: Memory factor                                 =  1.0000


ts: **************************************************************
ts: Save H and S matrices                           =    F
ts: Save DM and EDM matrices                        =    F
ts: Only save the overlap matrix S                  =    F
ts: **************************************************************

************************ Begin: TS CHECKS AND WARNINGS ************************
************************ End: TS CHECKS AND WARNINGS **************************


                     ====================================
                        Begin MD step =      1
                     ====================================

outcoor: Atomic coordinates (fractional):                   
    0.00000000    0.00000000    0.00000000   1       1  Mg
    0.50000000    0.50000000    0.50000000   1       2  Mg
    0.25000000    0.25000000    0.25000000   2       3  C
   -0.25000000   -0.25000000   -0.25000000   2       4  C
    0.52740000   -0.02740000    0.25000000   3       5  O
    0.25000000    0.52740000   -0.02740000   3       6  O
   -0.02740000    0.25000000    0.52740000   3       7  O
   -0.52740000    0.02740000   -0.25000000   3       8  O
   -0.25000000   -0.52740000    0.02740000   3       9  O
    0.02740000   -0.25000000   -0.52740000   3      10  O

outcell: Unit cell vectors (Ang):
        5.677830    0.000000    0.000000
        3.786009    4.231299    0.000000
        3.786009    1.692731    3.877957

outcell: Cell vector modules (Ang)   :    5.677830    5.677830    5.677830
outcell: Cell angles (23,13,12) (deg):     48.1790     48.1790     48.1790
outcell: Cell volume (Ang**3)        :     93.1663
Gamma-point calculation with interaction between periodic images
Some features might not work optimally:
e.g. DM initialization from atomic data
<dSpData1D:S at geom step 1
  <sparsity:sparsity for geom step 1
    nrows_g=34 nrows=6 sparsity=.1765 nnzs=204, refcount: 7>
  <dData1D:(new from dSpData1D) n=204, refcount: 1>
refcount: 1>
new_DM -- step:     1
Initializing Density Matrix...
DM filled with atomic data:
<dSpData2D:DM initialized from atoms
  <sparsity:sparsity for geom step 1
    nrows_g=34 nrows=6 sparsity=.1765 nnzs=204, refcount: 8>
  <dData2D:DM n=204 m=1, refcount: 1>
refcount: 1>
No. of atoms with KB's overlaping orbs in proc 0. Max # of overlaps:      10      85
New grid distribution:   1
           1       1:   16    1:    8    1:    4
           2       1:   16    1:    8    5:    8
           3       1:   16    1:    8    9:   12
           4       1:   16    1:    8   13:   16
           5       1:   16    9:   16    1:    4
           6       1:   16    9:   16    5:    8
           7       1:   16    9:   16    9:   12
           8       1:   16    9:   16   13:   16

InitMesh: MESH =    32 x    32 x    32 =       32768
InitMesh: (bp) =    16 x    16 x    16 =        4096
InitMesh: Mesh cutoff (required, used) =   100.000   112.857 Ry
ExtMesh (bp) on 0 =    76 x    68 x    64 =      330752
New grid distribution:   2
           1       8:   16    1:    8    1:    8
           2       9:   16    9:   16    1:    8
           3       1:    8    1:    8    9:   16
           4       1:    7    1:    8    1:    8
           5       9:   16    1:    8    9:   16
           6       1:    8    9:   16    1:    8
           7       1:    9    9:   16    9:   16
           8      10:   16    9:   16    9:   16
New grid distribution:   3
           1       1:    8    9:   16    9:   16
           2       9:   16    1:    8    1:    8
           3       9:   16    1:    8    9:   16
           4       9:   16    9:   16    1:    8
           5       1:    8    1:    8    9:   16
           6       1:    8    1:    8    1:    8
           7       9:   16    9:   16    9:   16
           8       1:    8    9:   16    1:    8
Setting up quadratic distribution...
ExtMesh (bp) on 0 =    69 x    68 x    68 =      319056
PhiOnMesh: Number of (b)points on node 0 =                  576
PhiOnMesh: nlist on node 0 =                12062

stepf: Fermi-Dirac step function

siesta: Program's energy decomposition (eV):
siesta: Ebs     =      -542.323388
siesta: Eions   =      5228.674091
siesta: Ena     =      1092.439512
siesta: Ekin    =      2394.980038
siesta: Enl     =      -404.754677
siesta: Eso     =         0.000000
siesta: Edftu   =         0.000000
siesta: DEna    =      -100.729490
siesta: DUscf   =        23.831104
siesta: DUext   =         0.000000
siesta: Exc     =      -722.928690
siesta: eta*DQ  =         0.000000
siesta: Emadel  =         0.000000
siesta: Emeta   =         0.000000
siesta: Emolmec =         0.000000
siesta: Ekinion =         0.000000
siesta: Eharris =     -2887.353881
siesta: Etot    =     -2945.836294
siesta: FreeEng =     -2945.836294

        iscf     Eharris(eV)        E_KS(eV)     FreeEng(eV)     dDmax    Ef(eV) dHmax(eV)
   scf:    1    -2887.353881    -2945.836294    -2945.836294  1.599341 -2.635148  5.355129
timer: Routine,Calls,Time,% = IterSCF        1       0.023   3.94
   scf:    2    -2959.192645    -2953.287500    -2953.287500  0.204428 -2.990508  2.382441
   scf:    3    -2955.900777    -2955.249509    -2955.249509  0.212254 -3.212197  0.592819
   scf:    4    -2955.318734    -2955.286173    -2955.286173  0.011036 -3.138546  0.336410
   scf:    5    -2955.323596    -2955.308183    -2955.308183  0.017026 -3.026194  0.084474
   scf:    6    -2955.310582    -2955.309423    -2955.309423  0.004741 -3.016332  0.037141
   scf:    7    -2955.310089    -2955.309805    -2955.309805  0.003127 -3.016602  0.022202
   scf:    8    -2955.309851    -2955.309831    -2955.309831  0.000477 -3.020724  0.012639
   scf:    9    -2955.309841    -2955.309838    -2955.309838  0.000453 -3.026720  0.004171
   scf:   10    -2955.309840    -2955.309839    -2955.309839  0.000141 -3.028381  0.002025
   scf:   11    -2955.309840    -2955.309840    -2955.309840  0.000132 -3.029587  0.000631
   scf:   12    -2955.309840    -2955.309840    -2955.309840  0.000020 -3.029551  0.000377

SCF Convergence by DM+H criterion
max |DM_out - DM_in|         :     0.0000195252
max |H_out - H_in|      (eV) :     0.0003768401
SCF cycle converged after 12 iterations

Using DM_out to compute the final energy and forces
No. of atoms with KB's overlaping orbs in proc 0. Max # of overlaps:      10      85

siesta: E_KS(eV) =            -2955.3098

siesta: E_KS - E_eggbox =     -2955.3098

siesta: Atomic forces (eV/Ang):
     1    0.000000   -0.000000    0.000000
     2   -0.000000    0.000000    0.000000
     3    0.000000   -0.000000    0.000000
     4   -0.000000    0.000000   -0.000000
     5    3.186657   -7.127364   -0.000000
     6    0.000000    4.276062   -6.532182
     7   -3.186657    2.851303    6.532181
     8   -3.186657    7.127364    0.000000
     9   -0.000000   -4.276062    6.532182
    10    3.186657   -2.851303   -6.532181
----------------------------------------
   Tot    0.000000    0.000000    0.000000
----------------------------------------
   Max    7.127364
   Res    3.491536    sqrt( Sum f_i^2 / 3N )
----------------------------------------
   Max    7.127364    constrained

Stress tensor Voigt[x,y,z,yz,xz,xy] (kbar):      120.20     -280.35     -340.85       61.34      146.11      224.19
(Free)E + p*V (eV/cell)    -2945.5989
Target enthalpy (eV/cell)    -2955.3098

siesta: Stress tensor (static) (eV/Ang**3):
         0.077591    0.138372    0.090580
         0.138372   -0.170029    0.040499
         0.090580    0.040499   -0.205384

siesta: Pressure (static):        159.05587244  kBar

siesta: Stress tensor (total) (eV/Ang**3):
         0.075021    0.139925    0.091192
         0.139925   -0.174979    0.038284
         0.091192    0.038284   -0.212739

siesta: Pressure (total):        167.00029992  kBar

siesta: Temp_ion =     600.000 K

                     ====================================
                        Begin MD step =      2
                     ====================================

outcoor: Atomic coordinates (fractional):                   
    0.00202205   -0.00219551    0.00037582   1       1  Mg
    0.49954678    0.50043367    0.49984976   1       2  Mg
    0.25162026    0.24965596    0.24864096   2       3  C
   -0.25177843   -0.24968494   -0.24808230   2       4  C
    0.52716147   -0.02603227    0.24814867   3       5  O
    0.24682768    0.52756170   -0.02424350   3       6  O
   -0.02863978    0.25133146    0.52802557   3       7  O
   -0.52718742    0.02732893   -0.25178619   3       8  O
   -0.24816809   -0.52807122    0.02630266   3       9  O
    0.02774123   -0.24941995   -0.52720930   3      10  O

outcell: Unit cell vectors (Ang):
        5.677830    0.000000    0.000000
        3.786009    4.231299    0.000000
        3.786009    1.692731    3.877957

outcell: Cell vector modules (Ang)   :    5.677830    5.677830    5.677830
outcell: Cell angles (23,13,12) (deg):     48.1790     48.1790     48.1790
outcell: Cell volume (Ang**3)        :     93.1663
Gamma-point calculation with interaction between periodic images
Some features might not work optimally:
e.g. DM initialization from atomic data
<dSpData1D:S at geom step 2
  <sparsity:sparsity for geom step 2
    nrows_g=34 nrows=6 sparsity=.1765 nnzs=204, refcount: 7>
  <dData1D:(new from dSpData1D) n=204, refcount: 1>
refcount: 1>
new_DM -- step:     2
Re-using DM from previous geometries...
Number of DMs in history: 1
 DM extrapolation coefficients: 
1   1.00000
New DM after history re-use:
<dSpData2D:SpM extrapolated using coords
  <sparsity:sparsity for geom step 2
    nrows_g=34 nrows=6 sparsity=.1765 nnzs=204, refcount: 9>
  <dData2D:(temp array for extrapolation) n=204 m=1, refcount: 1>
refcount: 1>
No. of atoms with KB's overlaping orbs in proc 0. Max # of overlaps:      10      85
New grid distribution:   1
           1       1:   16    1:    8    1:    4
           2       1:   16    1:    8    5:    8
           3       1:   16    1:    8    9:   12
           4       1:   16    1:    8   13:   16
           5       1:   16    9:   16    1:    4
           6       1:   16    9:   16    5:    8
           7       1:   16    9:   16    9:   12
           8       1:   16    9:   16   13:   16

InitMesh: MESH =    32 x    32 x    32 =       32768
InitMesh: (bp) =    16 x    16 x    16 =        4096
InitMesh: Mesh cutoff (required, used) =   100.000   112.857 Ry
ExtMesh (bp) on 0 =    76 x    68 x    64 =      330752
New grid distribution:   2
           1       8:   16    1:    8    1:    8
           2       9:   16    9:   16    1:    8
           3       1:    8    1:    8    9:   16
           4       1:    7    1:    8    1:    8
           5       9:   16    1:    8    9:   16
           6       1:    8    9:   16    1:    8
           7       1:    9    9:   16    9:   16
           8      10:   16    9:   16    9:   16
New grid distribution:   3
           1       1:    8    9:   16    9:   16
           2       9:   16    1:    8    1:    8
           3       9:   16    1:    8    9:   16
           4       9:   16    9:   16    1:    8
           5       1:    8    1:    8    9:   16
           6       1:    8    1:    8    1:    8
           7       9:   16    9:   16    9:   16
           8       1:    8    9:   16    1:    8
Setting up quadratic distribution...
ExtMesh (bp) on 0 =    69 x    68 x    68 =      319056
PhiOnMesh: Number of (b)points on node 0 =                  576
PhiOnMesh: nlist on node 0 =                12098

        iscf     Eharris(eV)        E_KS(eV)     FreeEng(eV)     dDmax    Ef(eV) dHmax(eV)
   scf:    1    -2955.103779    -2955.225591    -2955.225591  0.019269 -2.791610  0.291527
   scf:    2    -2955.079726    -2955.185342    -2955.185342  0.034557 -2.838881  0.732406
   scf:    3    -2955.245524    -2955.232711    -2955.232711  0.025135 -2.806046  0.025398
   scf:    4    -2955.232800    -2955.232756    -2955.232756  0.000352 -2.807118  0.017924
   scf:    5    -2955.232829    -2955.232795    -2955.232795  0.000732 -2.808606  0.002277
   scf:    6    -2955.232796    -2955.232796    -2955.232796  0.000097 -2.808515  0.001020
   scf:    7    -2955.232796    -2955.232796    -2955.232796  0.000037 -2.808378  0.000459

SCF Convergence by DM+H criterion
max |DM_out - DM_in|         :     0.0000371307
max |H_out - H_in|      (eV) :     0.0004590579
SCF cycle converged after 7 iterations

Using DM_out to compute the final energy and forces
No. of atoms with KB's overlaping orbs in proc 0. Max # of overlaps:      10      85

siesta: E_KS(eV) =            -2955.2328

siesta: Atomic forces (eV/Ang):
     1   -0.036132    0.065696   -0.013952
     2    0.016901   -0.007182    0.009303
     3   -0.498890    0.409335    1.128642
     4    0.374739   -0.420603   -0.715610
     5    3.371597   -7.623466    0.157206
     6    0.037723    4.600487   -7.273294
     7   -2.902289    2.469417    6.039569
     8   -3.302051    7.456820    0.088710
     9   -0.037524   -4.290220    6.832184
    10    2.984704   -2.697943   -6.169551
----------------------------------------
   Tot    0.008778   -0.037659    0.083207
----------------------------------------
   Max    7.623466
   Res    3.572825    sqrt( Sum f_i^2 / 3N )
----------------------------------------
   Max    7.623466    constrained

Stress tensor Voigt[x,y,z,yz,xz,xy] (kbar):      121.82     -299.90     -338.33       80.67      137.45      226.59
(Free)E + p*V (eV/cell)    -2945.2230
Target enthalpy (eV/cell)    -2955.2328

siesta: Stress tensor (static) (eV/Ang**3):
         0.078602    0.139873    0.085178
         0.139873   -0.182231    0.052565
         0.085179    0.052566   -0.203814

siesta: Pressure (static):        164.19491891  kBar

siesta: Stress tensor (total) (eV/Ang**3):
         0.076031    0.141426    0.085790
         0.141426   -0.187181    0.050350
         0.085790    0.050351   -0.211169

siesta: Pressure (total):        172.13934638  kBar

siesta: Temp_ion =     535.217 K

                     ====================================
                        Begin MD step =      3
                     ====================================

outcoor: Atomic coordinates (fractional):                   
    0.00403807   -0.00438434    0.00075022   1       1  Mg
    0.49909480    0.50086630    0.49970047   1       2  Mg
    0.25302613    0.24929621    0.24751405   2       3  C
   -0.25339246   -0.24939029   -0.24631178   2       4  C
    0.52798799   -0.02575290    0.24632161   3       5  O
    0.24367450    0.52882354   -0.02220988   3       6  O
   -0.03079157    0.25263930    0.52958355   3       7  O
   -0.52803203    0.02830746   -0.25355869   3       8  O
   -0.24635733   -0.52977142    0.02626010   3       9  O
    0.02903276   -0.24884060   -0.52797108   3      10  O

outcell: Unit cell vectors (Ang):
        5.677830    0.000000    0.000000
        3.786009    4.231299    0.000000
        3.786009    1.692731    3.877957

outcell: Cell vector modules (Ang)   :    5.677830    5.677830    5.677830
outcell: Cell angles (23,13,12) (deg):     48.1790     48.1790     48.1790
outcell: Cell volume (Ang**3)        :     93.1663
Gamma-point calculation with interaction between periodic images
Some features might not work optimally:
e.g. DM initialization from atomic data
<dSpData1D:S at geom step 3
  <sparsity:sparsity for geom step 3
    nrows_g=34 nrows=6 sparsity=.1765 nnzs=204, refcount: 7>
  <dData1D:(new from dSpData1D) n=204, refcount: 1>
refcount: 1>
new_DM -- step:     3
Re-using DM from previous geometries...
Number of DMs in history: 1
 DM extrapolation coefficients: 
1   1.00000
New DM after history re-use:
<dSpData2D:SpM extrapolated using coords
  <sparsity:sparsity for geom step 3
    nrows_g=34 nrows=6 sparsity=.1765 nnzs=204, refcount: 9>
  <dData2D:(temp array for extrapolation) n=204 m=1, refcount: 1>
refcount: 1>
No. of atoms with KB's overlaping orbs in proc 0. Max # of overlaps:      10      85
New grid distribution:   1
           1       1:   16    1:    8    1:    4
           2       1:   16    1:    8    5:    8
           3       1:   16    1:    8    9:   12
           4       1:   16    1:    8   13:   16
           5       1:   16    9:   16    1:    4
           6       1:   16    9:   16    5:    8
           7       1:   16    9:   16    9:   12
           8       1:   16    9:   16   13:   16

InitMesh: MESH =    32 x    32 x    32 =       32768
InitMesh: (bp) =    16 x    16 x    16 =        4096
InitMesh: Mesh cutoff (required, used) =   100.000   112.857 Ry
ExtMesh (bp) on 0 =    76 x    68 x    64 =      330752
New grid distribution:   2
           1       8:   16    1:    8    1:    8
           2       9:   16    9:   16    1:    8
           3       1:    8    1:    8    9:   16
           4       1:    7    1:    8    1:    8
           5       9:   16    1:    8    9:   16
           6       1:    8    9:   16    1:    8
           7       1:    9    9:   16    9:   16
           8      10:   16    9:   16    9:   16
New grid distribution:   3
           1       1:    8    9:   16    9:   16
           2       9:   16    1:    8    1:    8
           3       9:   16    1:    8    9:   16
           4       9:   16    9:   16    1:    8
           5       1:    8    1:    8    9:   16
           6       1:    8    1:    8    1:    8
           7       9:   16    9:   16    9:   16
           8       1:    8    9:   16    1:    8
Setting up quadratic distribution...
ExtMesh (bp) on 0 =    69 x    68 x    68 =      319056
PhiOnMesh: Number of (b)points on node 0 =                  576
PhiOnMesh: nlist on node 0 =                12112

        iscf     Eharris(eV)        E_KS(eV)     FreeEng(eV)     dDmax    Ef(eV) dHmax(eV)
   scf:    1    -2955.600857    -2955.346117    -2955.346117  0.016224 -2.700810  0.237332
   scf:    2    -2955.226131    -2955.313442    -2955.313442  0.027820 -2.702807  0.621203
   scf:    3    -2955.363395    -2955.352587    -2955.352587  0.020499 -2.696956  0.031446
   scf:    4    -2955.352680    -2955.352635    -2955.352635  0.000450 -2.694841  0.021179
   scf:    5    -2955.352696    -2955.352669    -2955.352669  0.000829 -2.691327  0.002934
   scf:    6    -2955.352672    -2955.352671    -2955.352671  0.000115 -2.691190  0.001708
   scf:    7    -2955.352671    -2955.352671    -2955.352671  0.000091 -2.691213  0.000562

SCF Convergence by DM+H criterion
max |DM_out - DM_in|         :     0.0000911148
max |H_out - H_in|      (eV) :     0.0005616720
SCF cycle converged after 7 iterations

Using DM_out to compute the final energy and forces
No. of atoms with KB's overlaping orbs in proc 0. Max # of overlaps:      10      85

siesta: E_KS(eV) =            -2955.3527

siesta: Atomic forces (eV/Ang):
     1   -0.073451    0.136264   -0.027456
     2    0.037368   -0.019796    0.020443
     3   -0.897640    0.750941    2.031139
     4    0.676532   -0.762566   -1.288899
     5    3.328218   -7.608469    0.302556
     6    0.087611    4.626370   -7.561880
     7   -2.533894    2.025721    5.308187
     8   -3.192900    7.272220    0.170955
     9   -0.055068   -4.113426    6.724131
    10    2.619062   -2.403735   -5.488801
----------------------------------------
   Tot   -0.004162   -0.096477    0.190375
----------------------------------------
   Max    7.608469
   Res    3.476514    sqrt( Sum f_i^2 / 3N )
----------------------------------------
   Max    7.608469    constrained

Stress tensor Voigt[x,y,z,yz,xz,xy] (kbar):      126.56     -297.14     -308.91       94.40      123.75      220.31
(Free)E + p*V (eV/cell)    -2946.0585
Target enthalpy (eV/cell)    -2955.3527

siesta: Stress tensor (static) (eV/Ang**3):
         0.082010    0.135300    0.076979
         0.135300   -0.180253    0.061377
         0.076979    0.061378   -0.187764

siesta: Pressure (static):        152.74632132  kBar

siesta: Stress tensor (total) (eV/Ang**3):
         0.078992    0.137503    0.077240
         0.137503   -0.185461    0.058919
         0.077240    0.058920   -0.192807

siesta: Pressure (total):        159.83297535  kBar

siesta: Temp_ion =     637.304 K

                     ====================================
                        Begin MD step =      4
                     ====================================

outcoor: Atomic coordinates (fractional):                   
    0.00604166   -0.00655937    0.00112184   1       1  Mg
    0.49864581    0.50129625    0.49955326   1       2  Mg
    0.25404440    0.24891089    0.24680489   2       3  C
   -0.25470957   -0.24913333   -0.24480636   2       4  C
    0.52986460   -0.02656874    0.24454126   3       5  O
    0.24056110    0.53120699   -0.02134367   3       6  O
   -0.03372951    0.25390593    0.53196102   3       7  O
   -0.52990998    0.03030438   -0.25530479   3       8  O
   -0.24457957   -0.53246892    0.02725562   3       9  O
    0.03116623   -0.24826236   -0.52958023   3      10  O

outcell: Unit cell vectors (Ang):
        5.677830    0.000000    0.000000
        3.786009    4.231299    0.000000
        3.786009    1.692731    3.877957

outcell: Cell vector modules (Ang)   :    5.677830    5.677830    5.677830
outcell: Cell angles (23,13,12) (deg):     48.1790     48.1790     48.1790
outcell: Cell volume (Ang**3)        :     93.1663
Gamma-point calculation with interaction between periodic images
Some features might not work optimally:
e.g. DM initialization from atomic data
<dSpData1D:S at geom step 4
  <sparsity:sparsity for geom step 4
    nrows_g=34 nrows=6 sparsity=.1765 nnzs=204, refcount: 7>
  <dData1D:(new from dSpData1D) n=204, refcount: 1>
refcount: 1>
new_DM -- step:     4
Re-using DM from previous geometries...
Number of DMs in history: 1
 DM extrapolation coefficients: 
1   1.00000
New DM after history re-use:
<dSpData2D:SpM extrapolated using coords
  <sparsity:sparsity for geom step 4
    nrows_g=34 nrows=6 sparsity=.1765 nnzs=204, refcount: 9>
  <dData2D:(temp array for extrapolation) n=204 m=1, refcount: 1>
refcount: 1>
No. of atoms with KB's overlaping orbs in proc 0. Max # of overlaps:      10      85
New grid distribution:   1
           1       1:   16    1:    8    1:    4
           2       1:   16    1:    8    5:    8
           3       1:   16    1:    8    9:   12
           4       1:   16    1:    8   13:   16
           5       1:   16    9:   16    1:    4
           6       1:   16    9:   16    5:    8
           7       1:   16    9:   16    9:   12
           8       1:   16    9:   16   13:   16

InitMesh: MESH =    32 x    32 x    32 =       32768
InitMesh: (bp) =    16 x    16 x    16 =        4096
InitMesh: Mesh cutoff (required, used) =   100.000   112.857 Ry
ExtMesh (bp) on 0 =    76 x    68 x    64 =      330752
New grid distribution:   2
           1       8:   16    1:    8    1:    8
           2       9:   16    9:   16    1:    8
           3       1:    8    1:    8    9:   16
           4       1:    7    1:    8    1:    8
           5       9:   16    1:    8    9:   16
           6       1:    8    9:   16    1:    8
           7       1:    9    9:   16    9:   16
           8      10:   16    9:   16    9:   16
New grid distribution:   3
           1       1:    8    9:   16    9:   16
           2       9:   16    1:    8    1:    8
           3       9:   16    1:    8    9:   16
           4       9:   16    9:   16    1:    8
           5       1:    8    1:    8    9:   16
           6       1:    8    1:    8    1:    8
           7       9:   16    9:   16    9:   16
           8       1:    8    9:   16    1:    8
Setting up quadratic distribution...
ExtMesh (bp) on 0 =    69 x    68 x    68 =      319056
PhiOnMesh: Number of (b)points on node 0 =                  576
PhiOnMesh: nlist on node 0 =                12134

        iscf     Eharris(eV)        E_KS(eV)     FreeEng(eV)     dDmax    Ef(eV) dHmax(eV)
   scf:    1    -2956.248126    -2955.644900    -2955.644900  0.021864 -2.737514  0.204462
   scf:    2    -2955.556704    -2955.622624    -2955.622624  0.024955 -2.688856  0.485968
   scf:    3    -2955.660983    -2955.652228    -2955.652228  0.017277 -2.713200  0.032391
   scf:    4    -2955.652354    -2955.652297    -2955.652297  0.000604 -2.708390  0.020913
   scf:    5    -2955.652351    -2955.652330    -2955.652330  0.000677 -2.702295  0.005028
   scf:    6    -2955.652338    -2955.652334    -2955.652334  0.000153 -2.701316  0.001668
   scf:    7    -2955.652336    -2955.652335    -2955.652335  0.000121 -2.700932  0.000784
   scf:    8    -2955.652335    -2955.652335    -2955.652335  0.000024 -2.701020  0.000413

SCF Convergence by DM+H criterion
max |DM_out - DM_in|         :     0.0000236131
max |H_out - H_in|      (eV) :     0.0004131848
SCF cycle converged after 8 iterations

Using DM_out to compute the final energy and forces
No. of atoms with KB's overlaping orbs in proc 0. Max # of overlaps:      10      85

siesta: E_KS(eV) =            -2955.6523

siesta: Atomic forces (eV/Ang):
     1   -0.128455    0.223735   -0.056488
     2    0.057739   -0.025574    0.035366
     3   -1.146519    0.999567    2.576686
     4    0.869442   -0.986831   -1.655601
     5    3.126318   -7.200598    0.397226
     6    0.113811    4.370469   -7.348130
     7   -2.106963    1.539080    4.491803
     8   -2.896964    6.689429    0.221619
     9   -0.071336   -3.680621    6.185219
    10    2.225748   -2.097746   -4.740753
----------------------------------------
   Tot    0.042821   -0.169090    0.106948
----------------------------------------
   Max    7.348130
   Res    3.225939    sqrt( Sum f_i^2 / 3N )
----------------------------------------
   Max    7.348130    constrained

Stress tensor Voigt[x,y,z,yz,xz,xy] (kbar):      131.47     -281.29     -269.04      100.30      109.96      210.25
(Free)E + p*V (eV/cell)    -2947.5334
Target enthalpy (eV/cell)    -2955.6523

siesta: Stress tensor (static) (eV/Ang**3):
         0.085932    0.127654    0.068413
         0.127654   -0.168153    0.064737
         0.068413    0.064737   -0.163414

siesta: Pressure (static):        131.18465933  kBar

siesta: Stress tensor (total) (eV/Ang**3):
         0.082055    0.131228    0.068629
         0.131228   -0.175566    0.062603
         0.068629    0.062602   -0.167923

siesta: Pressure (total):        139.62301775  kBar

siesta: Temp_ion =     891.769 K

                     ====================================
                        Begin MD step =      5
                     ====================================

outcoor: Atomic coordinates (fractional):                   
    0.00802473   -0.00871126    0.00148771   1       1  Mg
    0.49820098    0.50172239    0.49940964   1       2  Mg
    0.25456397    0.24850198    0.24662568   2       3  C
   -0.25564429   -0.24892616   -0.24364144   2       4  C
    0.53272568   -0.02842794    0.24282223   3       5  O
    0.23750119    0.53466265   -0.02161190   3       6  O
   -0.03731224    0.25511291    0.53503195   3       7  O
   -0.53273821    0.03323410   -0.25701668   3       8  O
   -0.24284409   -0.53606921    0.02920604   3       9  O
    0.03402510   -0.24768814   -0.53192127   3      10  O

outcell: Unit cell vectors (Ang):
        5.677830    0.000000    0.000000
        3.786009    4.231299    0.000000
        3.786009    1.692731    3.877957

outcell: Cell vector modules (Ang)   :    5.677830    5.677830    5.677830
outcell: Cell angles (23,13,12) (deg):     48.1790     48.1790     48.1790
outcell: Cell volume (Ang**3)        :     93.1663
Gamma-point calculation with interaction between periodic images
Some features might not work optimally:
e.g. DM initialization from atomic data
<dSpData1D:S at geom step 5
  <sparsity:sparsity for geom step 5
    nrows_g=34 nrows=6 sparsity=.1765 nnzs=204, refcount: 7>
  <dData1D:(new from dSpData1D) n=204, refcount: 1>
refcount: 1>
new_DM -- step:     5
Re-using DM from previous geometries...
Number of DMs in history: 1
 DM extrapolation coefficients: 
1   1.00000
New DM after history re-use:
<dSpData2D:SpM extrapolated using coords
  <sparsity:sparsity for geom step 5
    nrows_g=34 nrows=6 sparsity=.1765 nnzs=204, refcount: 9>
  <dData2D:(temp array for extrapolation) n=204 m=1, refcount: 1>
refcount: 1>
No. of atoms with KB's overlaping orbs in proc 0. Max # of overlaps:      10      85
New grid distribution:   1
           1       1:   16    1:    8    1:    4
           2       1:   16    1:    8    5:    8
           3       1:   16    1:    8    9:   12
           4       1:   16    1:    8   13:   16
           5       1:   16    9:   16    1:    4
           6       1:   16    9:   16    5:    8
           7       1:   16    9:   16    9:   12
           8       1:   16    9:   16   13:   16

InitMesh: MESH =    32 x    32 x    32 =       32768
InitMesh: (bp) =    16 x    16 x    16 =        4096
InitMesh: Mesh cutoff (required, used) =   100.000   112.857 Ry
ExtMesh (bp) on 0 =    76 x    68 x    64 =      330752
New grid distribution:   2
           1       8:   16    1:    8    1:    8
           2       9:   16    9:   16    1:    8
           3       1:    8    1:    8    9:   16
           4       1:    7    1:    8    1:    8
           5       9:   16    1:    8    9:   16
           6       1:    8    9:   16    1:    8
           7       1:    9    9:   16    9:   16
           8      10:   16    9:   16    9:   16
New grid distribution:   3
           1       1:    8    9:   16    9:   16
           2       9:   16    1:    8    1:    8
           3       9:   16    1:    8    9:   16
           4       9:   16    9:   16    1:    8
           5       1:    8    1:    8    9:   16
           6       1:    8    1:    8    1:    8
           7       9:   16    9:   16    9:   16
           8       1:    8    9:   16    1:    8
Setting up quadratic distribution...
ExtMesh (bp) on 0 =    69 x    68 x    68 =      319056
PhiOnMesh: Number of (b)points on node 0 =                  576
PhiOnMesh: nlist on node 0 =                12138

        iscf     Eharris(eV)        E_KS(eV)     FreeEng(eV)     dDmax    Ef(eV) dHmax(eV)
   scf:    1    -2956.960208    -2956.065689    -2956.065689  0.032297 -2.899120  0.251854
   scf:    2    -2955.990396    -2956.049585    -2956.049585  0.032119 -2.797397  0.412094
   scf:    3    -2956.085852    -2956.076306    -2956.076306  0.019006 -2.851263  0.026748
   scf:    4    -2956.076393    -2956.076354    -2956.076354  0.000443 -2.845444  0.016888
   scf:    5    -2956.076400    -2956.076379    -2956.076379  0.000605 -2.838391  0.004311
   scf:    6    -2956.076387    -2956.076383    -2956.076383  0.000189 -2.836800  0.001350
   scf:    7    -2956.076385    -2956.076384    -2956.076384  0.000097 -2.836469  0.000690

SCF Convergence by DM+H criterion
max |DM_out - DM_in|         :     0.0000969420
max |H_out - H_in|      (eV) :     0.0006896935
SCF cycle converged after 7 iterations

Using DM_out to compute the final energy and forces
No. of atoms with KB's overlaping orbs in proc 0. Max # of overlaps:      10      85

siesta: E_KS(eV) =            -2956.0764

siesta: Atomic forces (eV/Ang):
     1   -0.176802    0.315745   -0.069882
     2    0.073321   -0.012780    0.039183
     3   -1.231317    1.129476    2.727612
     4    0.929910   -1.084681   -1.804754
     5    2.720939   -6.301626    0.446195
     6    0.147643    3.742924   -6.646872
     7   -1.625299    0.950632    3.550388
     8   -2.437369    5.680477    0.324161
     9   -0.114538   -2.982891    5.349056
    10    1.760537   -1.714260   -3.891945
----------------------------------------
   Tot    0.047026   -0.276985    0.023143
----------------------------------------
   Max    6.646872
   Res    2.795062    sqrt( Sum f_i^2 / 3N )
----------------------------------------
   Max    6.646872    constrained

Stress tensor Voigt[x,y,z,yz,xz,xy] (kbar):      138.94     -239.75     -218.93       97.50       96.15      190.81
(Free)E + p*V (eV/cell)    -2949.8788
Target enthalpy (eV/cell)    -2956.0764

siesta: Stress tensor (static) (eV/Ang**3):
         0.091761    0.113569    0.059587
         0.113569   -0.138289    0.062068
         0.059587    0.062067   -0.130928

siesta: Pressure (static):         94.77278484  kBar

siesta: Stress tensor (total) (eV/Ang**3):
         0.086716    0.119096    0.060011
         0.119096   -0.149636    0.060857
         0.060011    0.060855   -0.136645

siesta: Pressure (total):        106.58044763  kBar

siesta: Temp_ion =    1250.458 K

siesta: Program's energy decomposition (eV):
siesta: Ebs     =      -604.881653
siesta: Eions   =      5228.674091
siesta: Ena     =      1093.768192
siesta: Ekin    =      2293.584467
siesta: Enl     =      -369.923538
siesta: Eso     =         0.000000
siesta: Edftu   =         0.000000
siesta: DEna    =       -47.914719
siesta: DUscf   =         7.739395
siesta: DUext   =         0.000000
siesta: Exc     =      -704.656089
siesta: eta*DQ  =         0.000000
siesta: Emadel  =         0.000000
siesta: Emeta   =         0.000000
siesta: Emolmec =         0.000000
siesta: Ekinion =         1.454652
siesta: Eharris =     -2954.621733
siesta: Etot    =     -2954.621732
siesta: FreeEng =     -2954.621732

siesta: Final energy (eV):
siesta:  Band Struct. =    -604.881653
siesta:       Kinetic =    2293.584467
siesta:       Hartree =    1016.774139
siesta:       Edftu   =       0.000000
siesta:       Eso     =       0.000000
siesta:    Ext. field =       0.000000
siesta:   Exch.-corr. =    -704.656089
siesta:  Ion-electron =   -4008.587863
siesta:       Ion-ion =   -1553.191037
siesta:       Ekinion =       1.454652
siesta:         Total =   -2954.621732
siesta:         Fermi =      -2.836469

siesta: Atomic forces (eV/Ang):
siesta:      1   -0.176802    0.315745   -0.069882
siesta:      2    0.073321   -0.012780    0.039183
siesta:      3   -1.231317    1.129476    2.727612
siesta:      4    0.929910   -1.084681   -1.804754
siesta:      5    2.720939   -6.301626    0.446195
siesta:      6    0.147643    3.742924   -6.646872
siesta:      7   -1.625299    0.950632    3.550388
siesta:      8   -2.437369    5.680477    0.324161
siesta:      9   -0.114538   -2.982891    5.349056
siesta:     10    1.760537   -1.714260   -3.891945
siesta: ----------------------------------------
siesta:    Tot    0.047026   -0.276985    0.023143

siesta: Stress tensor (static) (eV/Ang**3):
siesta:     0.091761    0.113569    0.059587
siesta:     0.113569   -0.138289    0.062068
siesta:     0.059587    0.062067   -0.130928

siesta: Cell volume =         93.166340 Ang**3

siesta: Pressure (static):
siesta:                Solid            Molecule  Units
siesta:           0.00064424         -0.00113418  Ry/Bohr**3
siesta:           0.05915188         -0.10413651  eV/Ang**3
siesta:          94.77278484       -166.84689217  kBar
(Free)E+ p_basis*V_orbitals  =       -2954.882087
(Free)Eharris+ p_basis*V_orbitals  =       -2954.882088

cite: Please see "md_verlet.bib" for an exhaustive BiBTeX file.
cite: Please clearly indicate Siesta version in published work: v4.1-b4-351
cite: This calculation has made use of the following articles
cite: which are encouraged to be cited in a published work.
        Primary SIESTA paper
          DOI: www.doi.org/10.1088/0953-8984/14/11/302

>> End of run:  22-JAN-2021  23:13:33
Job completed
