Siesta Version  : v4.1-b4-351
Architecture    : x86_64-linux-n-62-26-19
Compiler version: GNU Fortran (GCC) 9.3.0
Compiler flags  : mpifort -m64 -fPIC -O3 -march=native -ftree-vectorize -fexpensive-optimizatioons -funroll-loops -fprefetch-loop-arrays -fno-second-underscore  -flto
PP flags        : -I/dtu/sw/dcc/SL73/2020-aug/generic/build-tools/1.0/include -I/dtu/sw/dcc/SL773/2020-aug/generic/gcc/9.3.0/include -I/dtu/sw/dcc/SL73/2020-aug/generic/gcc/9.3.0/include -I/dtu/sw/dcc/SL73/2020-aug/XeonE5-2660v3/gnu/9.3.0/zlib/1.2.11/include -I/dtu/sw/dcc/SL73/2020-aug/generic/numactl/2.0.12/include -I/dtu/sw/dcc/SL73/2020-aug/XeonE5-2660v3/gnu/9.3.0/libxml2/2.9.10/include -I/dtu/sw/dcc/SL73/2020-aug/XeonE5-2660v3/gnu/9.3.0/hwloc/2.2.0/include -I/dtu/sw/dcc/SL73/2020-aug/XeonE5-2660v3/gnu/9.3.0/knem/1.1.4/include -I/dtu/sw/dcc/SL73/2020-aug/XeonE5-2660v3/gnu/9.3.0/ucx/1.8.1/include -I/dtu/sw/dcc/SL73/2020-aug/XeonE5-2660v3/gnu/9.3.0/openmpi/4.0.4/include -I/dtu/sw/dcc/SL73/2020-aug/XeonE5-2660v3/gnu/9.3.0/szip/2.1.1/include -I/dtu/sw/dcc/SL73/2020-aug/XeonE5-2660v3/gnu/9.3.0/hdf5/1.12.0/include -I/dtu/sw/dcc/SL73/2020-aug/XeonE5-2660v3/gnu/9.3.0/pnetcdf/1.12.1/include -I/dtu/sw/dcc/SL73/2020-aug/generic/gen-zlib/1.2.11/include -I/dtu/sw/dcc/SL73/2020-aug/generic/openssl/1.1.1/include -I/dtu/sw/dcc/SL73/2020-aug/generic/libssh2/1.8.2/include -I/dtu/sw/dcc/SL73/2020-aug/generic/curl/7.65.1/include -I/dtu/sw/dcc/SL73/2020-aug/XeonE5-2660v3/gnu/9.3.0/netcdf/4.7.4/include -I/dtu/sw/dcc/SL73/2020-aug/XeonE5-2660v3/gnu/9.3.0/flook/0.8.1/include -I/dtu/sw/dcc/SL73/2020-aug/XeonE5-2660v3/gnu/9.3.0/fftw/3.3.8/include -I/dtu/sw/dcc/SL73/2020-aug/XeonE5-2660v3/gnu/9.3.0/parmetis/4.0.3/include -I/dtu/sw/dcc/SL73/2020-aug/XeonE5-2660v3/gnu/9.3.0/scalapack/2.1.0/include -I/dtu/sw/dcc/SL73/2020-aug/XeonE5-2660v3/gnu/9.3.0/lapack/3.9.0/include -I/dtu/sw/dcc/SL73/2020-aug/XeonE5-2660v3/gnu/9.3.0/blis/0.7.0/include -I/dtu/sw/dcc/SL73/2020-aug/XeonE5-2660v3/gnu/9.3.0/scotch/6.0.9/include -I/dtu/sw/dcc/SL73/2020-aug/XeonE5-2660v3/gnu/9.3.0/mumps/5.3.3/include -I/dtu/sw/dcc/SL73/2020-aug/XeonE5-2660v3/gnu/9.3.0/elpa/2020.05.001/include -DSIESTA__ELPA -DMPI -DFC_HAVE_FLUSH -DFC_HAVE_ABORT -DCDF -DCDF4 -DSIESTA__FLOOK  -DNCDF -DNCDF_4 -DNCDF_PARALLEL -DTS_NOCHECKS -DSIESTA__METIS -DSIESTA__MUMPS -DSIESTA__MRRR -I/dtu/sw/dcc/SL73/2020-aug/XeonE5-2660v3/gnu/9.3.0/elpa/2020.05.001/include/elpa
Libraries       : libncdf.a libfdict.a -lnetcdff -lnetcdf -lpnetcdf -lhdf5_hl -lhdf5 -lz  -lzmuumps -lmumps_common -lesmumps -lscotch -lscotcherr -lpord -lparmetis -lmetis -lelpa -lscalapack -llapack -lblis  -L/dtu/sw/dcc/SL73/2020-aug/XeonE5-2660v3/gnu/9.3.0/flook/0.8.1/lib -Wl,-rpath=/dtu/sw/dcc/SL73/2020-aug/XeonE5-2660v3/gnu/9.3.0/flook/0.8.1/lib -lflookall -ldl  -flto -fuse-linker-plugin  -lmetis
PARALLEL version
NetCDF support
NetCDF-4 support
NetCDF-4 MPI-IO support
METIS ordering support
Lua support

* Running on 8 nodes in parallel
>> Start of run:  22-JAN-2021  23:15:18

                           ***********************       
                           *  WELCOME TO SIESTA  *       
                           ***********************       

reinit: Reading from ../mix_pulay.fdf

reinit: -----------------------------------------------------------------------
reinit: System Name: Linear Fe3 cluster.
reinit: -----------------------------------------------------------------------
reinit: System Label: mix_pulay
reinit: -----------------------------------------------------------------------
Deprecated spin keyword overridden by new-style 'Spin' input
Option from deprecated keyword: non-collinear
Option from 'Spin' keyword input: non-collinear

initatom: Reading input for the pseudopotentials and atomic orbitals ----------
Species number:   1 Atomic number:   26 Label: fe_nc

Ground state valence configuration:   4s02  3d06
Reading pseudopotential information in formatted form from fe_nc.psf

Valence configuration for pseudopotential generation:
4s( 1.00) rc: 2.00
4p( 0.00) rc: 2.00
3d( 7.00) rc: 2.00
4f( 0.00) rc: 2.00
For fe_nc, standard SIESTA heuristics set lmxkb to 3
 (one more than the basis l, including polarization orbitals).
Use PS.lmax or PS.KBprojectors blocks to override.
fe_nc: nkbl increased for l=1 due to the presence of a polarization orbital

<basis_specs>
===============================================================================
fe_nc                Z=  26    Mass=  55.850        Charge= 0.17977+309
Lmxo=2 Lmxkb= 3    BasisType=split      Semic=F
L=0  Nsemic=0  Cnfigmx=4
          i=1  nzeta=2  polorb=1  (4s)
            splnorm:   0.15000    
               vcte:    0.0000    
               rinn:    0.0000    
               qcoe:    0.0000    
               qyuk:    0.0000    
               qwid:   0.10000E-01
                rcs:    0.0000      0.0000    
            lambdas:    1.0000      1.0000    
L=1  Nsemic=0  Cnfigmx=4
L=2  Nsemic=0  Cnfigmx=3
          i=1  nzeta=2  polorb=0  (3d)
            splnorm:   0.15000    
               vcte:    0.0000    
               rinn:    0.0000    
               qcoe:    0.0000    
               qyuk:    0.0000    
               qwid:   0.10000E-01
                rcs:    0.0000      0.0000    
            lambdas:    1.0000      1.0000    
-------------------------------------------------------------------------------
L=0  Nkbl=1  erefs: 0.17977+309
L=1  Nkbl=2  erefs: 0.17977+309 0.17977+309
L=2  Nkbl=1  erefs: 0.17977+309
L=3  Nkbl=1  erefs: 0.17977+309
===============================================================================
</basis_specs>

atom: Called for fe_nc                 (Z =  26)

read_vps: Pseudopotential generation method:
read_vps: ATM3      Troullier-Martins                       
Valence charge for ps generation:    8.00000

read_vps: Pseudopotential includes a core correction:
read_vps: Pseudo-core for xc-correction

xc_check: Exchange-correlation functional:
xc_check: Ceperley-Alder
V l=0 = -2*Zval/r beyond r=  2.8345
V l=1 = -2*Zval/r beyond r=  2.8345
V l=2 = -2*Zval/r beyond r=  2.8345
V l=3 = -2*Zval/r beyond r=  2.8345
All V_l potentials equal beyond r=  1.9726
This should be close to max(r_c) in ps generation
All pots = -2*Zval/r beyond r=  2.8345
Using large-core scheme for Vlocal

atom: Estimated core radius    2.83451
atom: Maximum radius for 4*pi*r*r*local-pseudopot. charge    3.13263
atom: Maximum radius for r*vlocal+2*Zval:    2.87017
GHOST: No ghost state for L =  0
KBgen: More than one KB projector for l=  1
KBgen: ghost states analysis will be not performed
GHOST: No ghost state for L =  2
GHOST: No ghost state for L =  3

KBgen: Kleinman-Bylander projectors: 
   l= 0   rc=  2.047986   el= -0.319855   Ekb=  3.923406   kbcos=  0.252820
   l= 1   rc=  2.047986   el= -0.070931   Ekb=  3.313875   kbcos=  0.157841
   l= 1   rc=  2.047986   el=  0.001457   Ekb=  6.640675   kbcos=  0.001631
   l= 2   rc=  2.022544   el= -0.307264   Ekb=-12.478630   kbcos= -0.654791
   l= 3   rc=  2.047986   el=  0.003534   Ekb= -1.656634   kbcos= -0.005966

KBgen: Total number of  Kleinman-Bylander projectors:   19
atom: -------------------------------------------------------------------------

atom: SANKEY-TYPE ORBITALS:
atom: Selected multiple-zeta basis: split     

SPLIT: Orbitals with angular momentum L= 0

SPLIT: Basis orbitals for state 4s

SPLIT: PAO cut-off radius determined from an
SPLIT: energy shift=  0.020000 Ry

   izeta = 1
                 lambda =    1.000000
                     rc =    6.799774
                 energy =   -0.302238
                kinetic =    0.298810
    potential(screened) =   -0.601048
       potential(ionic) =   -5.818758

   izeta = 2
                 rmatch =    6.468141
              splitnorm =    0.150000
                 energy =   -0.257217
                kinetic =    0.445909
    potential(screened) =   -0.703126
       potential(ionic) =   -6.273620

SPLIT: Orbitals with angular momentum L= 2

SPLIT: Basis orbitals for state 3d

SPLIT: PAO cut-off radius determined from an
SPLIT: energy shift=  0.020000 Ry

   izeta = 1
                 lambda =    1.000000
                     rc =    4.022404
                 energy =   -0.287031
                kinetic =    8.952870
    potential(screened) =   -9.239901
       potential(ionic) =  -18.247427

   izeta = 2
                 rmatch =    2.291856
              splitnorm =    0.150000
                 energy =    0.070417
                kinetic =   12.282791
    potential(screened) =  -12.212374
       potential(ionic) =  -21.929746

POLgen: Perturbative polarization orbital with L=  1

POLgen: Polarization orbital for state 4s

   izeta = 1
                     rc =    6.799774
                 energy =   -0.003154
                kinetic =    0.566601
    potential(screened) =   -0.569755
       potential(ionic) =   -5.393577
atom: Total number of Sankey-type orbitals: 15

atm_pop: Valence configuration (for local Pseudopot. screening):
 4s( 2.00)                                                            
 4p( 0.00)                                                            
 3d( 6.00)                                                            
Vna: chval, zval:    8.00000   8.00000

Vna:  Cut-off radius for the neutral-atom potential:   6.799774
comcore: Pseudo-core radius Rcore=  3.874354

atom: _________________________________________________________________________

prinput: Basis input ----------------------------------------------------------

PAO.BasisType split     

%block ChemicalSpeciesLabel
    1   26 fe_nc                   # Species index, atomic number, species label
%endblock ChemicalSpeciesLabel

%block PAO.Basis                 # Define Basis set
fe_nc                 2                    # Species label, number of l-shells
 n=4   0   2 P   1                   # n, l, Nzeta, Polarization, NzetaPol
   6.800      6.468   
   1.000      1.000   
 n=3   2   2                         # n, l, Nzeta 
   4.022      2.292   
   1.000      1.000   
%endblock PAO.Basis

prinput: ----------------------------------------------------------------------

Dumping basis to NetCDF file fe_nc.ion.nc
coor:   Atomic-coordinates input format  =     Cartesian coordinates
coor:                                            (in Bohr units)

siesta: Atomic coordinates (Bohr) and species
siesta:      0.00000   0.00000   3.64400  1        1
siesta:      0.00000   0.00000   0.00000  1        2
siesta:      0.00000   0.00000  -3.64400  1        3

siesta: System type = bulk      

initatomlists: Number of atoms, orbitals, and projectors:      3    45    57

siesta: ******************** Simulation parameters ****************************
siesta:
siesta: The following are some of the parameters of the simulation.
siesta: A complete list of the parameters used, including default values,
siesta: can be found in file out.fdf
siesta:
redata: Spin configuration                          = non-collinear
redata: Number of spin components                   = 4
redata: Time-Reversal Symmetry                      = F
redata: Spin spiral                                 = F
redata: Long output                                 =   F
redata: Number of Atomic Species                    =        1
redata: Charge density info will appear in .RHO file
redata: Write Mulliken Pop.                         = Atomic and Orbital charges
redata: Matel table size (NRTAB)                    =     1024
redata: Mesh Cutoff                                 =   150.0000 Ry
redata: Net charge of the system                    =     0.0000 |e|
redata: Min. number of SCF Iter                     =        0
redata: Max. number of SCF Iter                     =     1000
redata: SCF convergence failure will abort job
redata: SCF mix quantity                            = Hamiltonian
redata: Mix DM or H after convergence               =   F
redata: Recompute H after scf cycle                 =   F
redata: Mix DM in first SCF step                    =   T
redata: Write Pulay info on disk                    =   F
redata: New DM Occupancy tolerance                  = 0.000000000001
redata: No kicks to SCF
redata: DM Mixing Weight for Kicks                  =     0.5000
redata: Require Harris convergence for SCF          =   F
redata: Harris energy tolerance for SCF             =     0.000100 eV
redata: Require DM convergence for SCF              =   T
redata: DM tolerance for SCF                        =     0.000100
redata: Require EDM convergence for SCF             =   F
redata: EDM tolerance for SCF                       =     0.001000 eV
redata: Require H convergence for SCF               =   T
redata: Hamiltonian tolerance for SCF               =     0.001000 eV
redata: Require (free) Energy convergence for SCF   =   F
redata: (free) Energy tolerance for SCF             =     0.000100 eV
redata: Using Saved Data (generic)                  =   F
redata: Use continuation files for DM               =   T
redata: Neglect nonoverlap interactions             =   F
redata: Method of Calculation                       = Diagonalization
redata: Electronic Temperature                      =  1160.4438 K
redata: Fix the spin of the system                  =   F
redata: Dynamics option                             = Single-point calculation
mix.SCF: Debug messages                          = T
mix.SCF: Pulay mixing                            = pulay
mix.SCF:    Variant                              = stable
mix.SCF:    History steps                        = 6
mix.SCF:    Linear mixing weight                 =     0.010000
mix.SCF:    Mixing weight                        =     0.010000
mix.SCF:    SVD condition                        = 0.1000E-07
mix.SCF:    Number of mixing iterations          = 12
mix.SCF:    Following mixer                      = pulay-GR
mix.SCF: Pulay mixing                            = pulay-GR
mix.SCF:    Variant                              = GR
mix.SCF:    History steps                        = 6
mix.SCF:    Linear mixing weight                 =     0.010000
mix.SCF:    Mixing weight                        =     0.010000
mix.SCF:    SVD condition                        = 0.1000E-07
mix.SCF:    Number of mixing iterations          = 12
mix.SCF:    Following mixer                      = pulay
mix.SCF: Spin-component mixing                   all
redata: Save all siesta data in one NC              =   F
redata: ***********************************************************************

%block SCF.Mixers
  pulay
  pulay-GR
%endblock SCF.Mixers

%block SCF.Mixer.pulay
  # Mixing method
  method pulay
  variant stable

  # Mixing options
  weight 0.0100
  weight.linear 0.0100
  history 6

  # Continuation options
  iterations 12
  next pulay-GR
%endblock SCF.Mixer.pulay

%block SCF.Mixer.pulay-GR
  # Mixing method
  method pulay
  variant GR

  # Mixing options
  weight 0.0100
  weight.linear 0.0100
  history 6

  # Continuation options
  iterations 12
  next pulay
%endblock SCF.Mixer.pulay-GR

DM_history_depth set to one: no extrapolation allowed by default for geometry relaxation
Size of DM history Fstack: 1
Total number of electrons:    24.000000
Total ionic charge:    24.000000

* ProcessorY, Blocksize:    2   6


* Orbital distribution balance (max,min):     6     3


Time-reversal symmetry not used.

siesta: k-grid: Number of k-points =     1
siesta: k-grid: Cutoff (effective) =     3.175 Ang
siesta: k-grid: Supercell and displacements
siesta: k-grid:    1   0   0      0.000
siesta: k-grid:    0   1   0      0.000
siesta: k-grid:    0   0   1      0.000

diag: Algorithm                                     = D&C
diag: Parallel over k                               =   F
diag: Use parallel 2D distribution                  =   T
diag: Parallel block-size                           = 6
diag: Parallel distribution                         =     2 x     4
diag: Used triangular part                          = Lower
diag: Absolute tolerance                            =  0.100E-15
diag: Orthogonalization factor                      =  0.100E-05
diag: Memory factor                                 =  1.0000


ts: **************************************************************
ts: Save H and S matrices                           =    F
ts: Save DM and EDM matrices                        =    F
ts: Only save the overlap matrix S                  =    F
ts: **************************************************************

************************ Begin: TS CHECKS AND WARNINGS ************************
************************ End: TS CHECKS AND WARNINGS **************************


                     ====================================
                        Single-point calculation
                     ====================================

outcell: Unit cell vectors (Ang):
        6.350124    0.000000    0.000000
        0.000000    6.350124    0.000000
        0.000000    0.000000   10.583540

outcell: Cell vector modules (Ang)   :    6.350124    6.350124   10.583540
outcell: Cell angles (23,13,12) (deg):     90.0000     90.0000     90.0000
outcell: Cell volume (Ang**3)        :    426.7715
Gamma-point calculation with interaction between periodic images
Some features might not work optimally:
e.g. DM initialization from atomic data
<dSpData1D:S at geom step 0
  <sparsity:sparsity for geom step 0
    nrows_g=45 nrows=6 sparsity=.1333 nnzs=270, refcount: 7>
  <dData1D:(new from dSpData1D) n=270, refcount: 1>
refcount: 1>
new_DM -- step:     1
Initializing Density Matrix...

Attempting to read DM from file... Failed...
DM filled with atomic data (user-defined):
<dSpData2D:DM initialized from atoms
  <sparsity:sparsity for geom step 0
    nrows_g=45 nrows=6 sparsity=.1333 nnzs=270, refcount: 8>
  <dData2D:DM n=270 m=4, refcount: 1>
refcount: 1>
     spin moment: S , {S} =    1.50000   1.50000   0.00000   0.00000
No. of atoms with KB's overlaping orbs in proc 0. Max # of overlaps:       3      45
New grid distribution:   1
           1       1:   24    1:   12    1:   10
           2       1:   24    1:   12   11:   20
           3       1:   24    1:   12   21:   30
           4       1:   24    1:   12   31:   40
           5       1:   24   13:   24    1:   10
           6       1:   24   13:   24   11:   20
           7       1:   24   13:   24   21:   30
           8       1:   24   13:   24   31:   40

InitMesh: MESH =    48 x    48 x    80 =      184320
InitMesh: (bp) =    24 x    24 x    40 =       23040
InitMesh: Mesh cutoff (required, used) =   150.000   157.914 Ry
ExtMesh (bp) on 0 =    80 x    68 x    66 =      359040
New grid distribution:   2
           1      12:   24    1:   11    1:   15
           2       1:   11    1:   11    1:   15
           3      12:   24    1:   11   16:   40
           4       1:   11    1:   11   16:   40
           5      12:   24   12:   24    1:   15
           6       1:   11   12:   24    1:   15
           7      12:   24   12:   24   16:   40
           8       1:   11   12:   24   16:   40
New grid distribution:   3
           1       1:   12   13:   24   20:   40
           2      13:   24    1:   12    1:   19
           3      13:   24    1:   12   20:   40
           4      13:   24   13:   24    1:   19
           5       1:   12    1:   12   20:   40
           6       1:   12    1:   12    1:   19
           7      13:   24   13:   24   20:   40
           8       1:   12   13:   24    1:   19
Setting up quadratic distribution...
ExtMesh (bp) on 0 =    69 x    67 x    71 =      328233
PhiOnMesh: Number of (b)points on node 0 =                 2145
PhiOnMesh: nlist on node 0 =                25197

stepf: Fermi-Dirac step function

siesta: Program's energy decomposition (eV):
siesta: Ebs     =       296.552197
siesta: Eions   =      2141.484345
siesta: Ena     =        95.469235
siesta: Ekin    =      2894.135049
siesta: Enl     =     -1845.643791
siesta: Eso     =         0.000000
siesta: Edftu   =         0.000000
siesta: DEna    =      -119.991632
siesta: DUscf   =        64.250494
siesta: DUext   =         0.000000
siesta: Exc     =     -1226.471890
siesta: eta*DQ  =         0.000000
siesta: Emadel  =         0.000000
siesta: Emeta   =         0.000000
siesta: Emolmec =         0.000000
siesta: Ekinion =         0.000000
siesta: Eharris =     -2188.621529
siesta: Etot    =     -2279.736880
siesta: FreeEng =     -2280.290972

        iscf     Eharris(eV)        E_KS(eV)     FreeEng(eV)     dDmax    Ef(eV) dHmax(eV)
   scf:    1    -2188.621529    -2279.736880    -2280.290972  0.981529 -7.983581 45.033840
     spin moment: S , {S} =    1.52577   1.52577   0.00000  -0.00000
mix (1): Pulay
mix (2): Pulay
mix (3): Pulay
mix (4): Pulay
mix (0): Pulay
mix (0): Pulay (initial), alpha = 0.1000E-01
mix (2): Pulay (initial), alpha = 0.1000E-01
mix (3): Pulay (initial), alpha = 0.1000E-01
mix (5): Pulay
mix (6): Pulay
mix (6): Pulay (initial), alpha = 0.1000E-01
mix (4): Pulay (initial), alpha = 0.1000E-01
mix (1): Pulay (initial), alpha = 0.1000E-01
mix (5): Pulay (initial), alpha = 0.1000E-01
mix (7): Pulay
mix (7): Pulay (initial), alpha = 0.1000E-01
timer: Routine,Calls,Time,% = IterSCF        1       0.104   7.55
   scf:    2    -2292.402970    -2286.252687    -2286.801094  0.043504 -7.833504 41.185476
     spin moment: S , {S} =    1.58342   1.58342   0.00000   0.00000
mix (6): Pulay
mix (4): Pulay
mix (4): n_hist = 2 / 6
mix (2): Pulay
mix (2): n_hist = 2 / 6
mix (3): Pulay
mix (3): n_hist = 2 / 6
mix (1): Pulay
mix (1): n_hist = 2 / 6
mix (5): Pulay
mix (5): n_hist = 2 / 6
mix (0): Pulay
mix (0): n_hist = 2 / 6
mix (6): n_hist = 2 / 6
mix (7): Pulay
mix (7): n_hist = 2 / 6
mix (0): G =   0.010000, sum(alpha) = 0.9723E+01, alpha =  0.9723E+01
mix (4): G =   0.010000, sum(alpha) = 0.9723E+01, alpha =  0.9723E+01
mix (2): G =   0.010000, sum(alpha) = 0.9723E+01, alpha =  0.9723E+01
mix (3): G =   0.010000, sum(alpha) = 0.9723E+01, alpha =  0.9723E+01
mix (1): G =   0.010000, sum(alpha) = 0.9723E+01, alpha =  0.9723E+01
mix (5): G =   0.010000, sum(alpha) = 0.9723E+01, alpha =  0.9723E+01
mix (6): G =   0.010000, sum(alpha) = 0.9723E+01, alpha =  0.9723E+01
mix (7): G =   0.010000, sum(alpha) = 0.9723E+01, alpha =  0.9723E+01
   scf:    3    -2084.517112    -2251.978899    -2252.134189  0.480226 -5.886056 32.311005
     spin moment: S , {S} =    2.31246   2.31246   0.00000  -0.00000
mix (3): Pulay
mix (3): n_hist = 3 / 6
mix (1): Pulay
mix (1): n_hist = 3 / 6
mix (6): Pulay
mix (6): n_hist = 3 / 6
mix (5): Pulay
mix (5): n_hist = 3 / 6
mix (4): Pulay
mix (4): n_hist = 3 / 6
mix (2): Pulay
mix (2): n_hist = 3 / 6
mix (0): Pulay
mix (0): n_hist = 3 / 6
mix (7): Pulay
mix (7): n_hist = 3 / 6
mix (3): G =   0.010000, sum(alpha) = 0.4841E+02, alpha =  0.5178E+02 -.3368E+01
mix (1): G =   0.010000, sum(alpha) = 0.4841E+02, alpha =  0.5178E+02 -.3368E+01
mix (6): G =   0.010000, sum(alpha) = 0.4841E+02, alpha =  0.5178E+02 -.3368E+01
mix (0): G =   0.010000, sum(alpha) = 0.4841E+02, alpha =  0.5178E+02 -.3368E+01
mix (5): G =   0.010000, sum(alpha) = 0.4841E+02, alpha =  0.5178E+02 -.3368E+01
mix (4): G =   0.010000, sum(alpha) = 0.4841E+02, alpha =  0.5178E+02 -.3368E+01
mix (2): G =   0.010000, sum(alpha) = 0.4841E+02, alpha =  0.5178E+02 -.3368E+01
mix (7): G =   0.010000, sum(alpha) = 0.4841E+02, alpha =  0.5178E+02 -.3368E+01
   scf:    4    -1531.310641    -1956.553641    -1956.553642  0.553372 -2.761725102.393880
     spin moment: S , {S} =    0.01184   0.01184   0.00000  -0.00000
mix (2): Pulay
mix (2): n_hist = 4 / 6
mix (3): Pulay
mix (3): n_hist = 4 / 6
mix (1): Pulay
mix (1): n_hist = 4 / 6
mix (6): Pulay
mix (6): n_hist = 4 / 6
mix (5): Pulay
mix (5): n_hist = 4 / 6
mix (4): Pulay
mix (4): n_hist = 4 / 6
mix (0): Pulay
mix (0): n_hist = 4 / 6
mix (7): Pulay
mix (7): n_hist = 4 / 6
mix (4): G =   0.010000, sum(alpha) = 0.2434E+02, alpha =  0.2746E+02 -.3421E+01 0.3072E+00
mix (2): G =   0.010000, sum(alpha) = 0.2434E+02, alpha =  0.2746E+02 -.3421E+01 0.3072E+00
mix (3): G =   0.010000, sum(alpha) = 0.2434E+02, alpha =  0.2746E+02 -.3421E+01 0.3072E+00
mix (1): G =   0.010000, sum(alpha) = 0.2434E+02, alpha =  0.2746E+02 -.3421E+01 0.3072E+00
mix (0): G =   0.010000, sum(alpha) = 0.2434E+02, alpha =  0.2746E+02 -.3421E+01 0.3072E+00
mix (6): G =   0.010000, sum(alpha) = 0.2434E+02, alpha =  0.2746E+02 -.3421E+01 0.3072E+00
mix (5): G =   0.010000, sum(alpha) = 0.2434E+02, alpha =  0.2746E+02 -.3421E+01 0.3072E+00
mix (7): G =   0.010000, sum(alpha) = 0.2434E+02, alpha =  0.2746E+02 -.3421E+01 0.3072E+00
   scf:    5    -1928.547390    -1942.637109    -1942.637110  0.053456 -2.910689103.207216
mix (4): Pulay
mix (4): n_hist = 5 / 6
mix (2): Pulay
mix (2): n_hist = 5 / 6
mix (3): Pulay
mix (3): n_hist = 5 / 6
mix (1): Pulay
mix (1): n_hist = 5 / 6
mix (7): Pulay
mix (7): n_hist = 5 / 6
mix (6): Pulay
mix (6): n_hist = 5 / 6
     spin moment: S , {S} =    0.00831   0.00831   0.00000  -0.00000
mix (5): Pulay
mix (5): n_hist = 5 / 6
mix (0): Pulay
mix (0): n_hist = 5 / 6
mix (4): G =   0.010000, sum(alpha) = -.1094E+02, alpha =  0.1759E+01 -.5767E+00 -.8168E+00 -.1130E+02
mix (2): G =   0.010000, sum(alpha) = -.1094E+02, alpha =  0.1759E+01 -.5767E+00 -.8168E+00 -.1130E+02
mix (3): G =   0.010000, sum(alpha) = -.1094E+02, alpha =  0.1759E+01 -.5767E+00 -.8168E+00 -.1130E+02
mix (1): G =   0.010000, sum(alpha) = -.1094E+02, alpha =  0.1759E+01 -.5767E+00 -.8168E+00 -.1130E+02
mix (0): G =   0.010000, sum(alpha) = -.1094E+02, alpha =  0.1759E+01 -.5767E+00 -.8168E+00 -.1130E+02
mix (5): G =   0.010000, sum(alpha) = -.1094E+02, alpha =  0.1759E+01 -.5767E+00 -.8168E+00 -.1130E+02
mix (6): G =   0.010000, sum(alpha) = -.1094E+02, alpha =  0.1759E+01 -.5767E+00 -.8168E+00 -.1130E+02
mix (7): G =   0.010000, sum(alpha) = -.1094E+02, alpha =  0.1759E+01 -.5767E+00 -.8168E+00 -.1130E+02
   scf:    6    -1671.685552    -2225.829712    -2226.037626  0.930316 -1.228278 43.818868
mix (1): Pulay
mix (1): n_hist = 6 / 6
mix (4): Pulay
mix (4): n_hist = 6 / 6
mix (2): Pulay
mix (2): n_hist = 6 / 6
mix (3): Pulay
mix (3): n_hist = 6 / 6
mix (6): Pulay
mix (6): n_hist = 6 / 6
     spin moment: S , {S} =    0.49099   0.49099   0.00000  -0.00000
mix (7): Pulay
mix (7): n_hist = 6 / 6
mix (5): Pulay
mix (5): n_hist = 6 / 6
mix (0): Pulay
mix (0): n_hist = 6 / 6
mix (5): G =   0.010000, sum(alpha) = -.2795E+01, alpha =  -.5242E+00 -.4215E-01 -.3420E+00 -.1373E+01 -.5138E+00
mix (7): G =   0.010000, sum(alpha) = -.2795E+01, alpha =  -.5242E+00 -.4215E-01 -.3420E+00 -.1373E+01 -.5138E+00
mix (6): G =   0.010000, sum(alpha) = -.2795E+01, alpha =  -.5242E+00 -.4215E-01 -.3420E+00 -.1373E+01 -.5138E+00
mix (1): G =   0.010000, sum(alpha) = -.2795E+01, alpha =  -.5242E+00 -.4215E-01 -.3420E+00 -.1373E+01 -.5138E+00
mix (4): G =   0.010000, sum(alpha) = -.2795E+01, alpha =  -.5242E+00 -.4215E-01 -.3420E+00 -.1373E+01 -.5138E+00
mix (2): G =   0.010000, sum(alpha) = -.2795E+01, alpha =  -.5242E+00 -.4215E-01 -.3420E+00 -.1373E+01 -.5138E+00
mix (3): G =   0.010000, sum(alpha) = -.2795E+01, alpha =  -.5242E+00 -.4215E-01 -.3420E+00 -.1373E+01 -.5138E+00
mix (0): G =   0.010000, sum(alpha) = -.2795E+01, alpha =  -.5242E+00 -.4215E-01 -.3420E+00 -.1373E+01 -.5138E+00
   scf:    7    -2354.174185    -2301.521679    -2301.535270  0.401320 -2.985107 25.351224
     spin moment: S , {S} =    0.67449   0.67449   0.00000   0.00000
mix (3): Pulay
mix (3): n_hist = 6 / 6
mix (5): Pulay
mix (5): n_hist = 6 / 6
mix (7): Pulay
mix (7): n_hist = 6 / 6
mix (6): Pulay
mix (6): n_hist = 6 / 6
mix (1): Pulay
mix (4): Pulay
mix (4): n_hist = 6 / 6
mix (2): Pulay
mix (2): n_hist = 6 / 6
mix (0): Pulay
mix (0): n_hist = 6 / 6
mix (1): n_hist = 6 / 6
mix (2): G =   0.010000, sum(alpha) = -.4330E+01, alpha =  -.6850E-01 -.3547E+00 -.2711E+01 -.4890E+00 -.7071E+00
mix (3): G =   0.010000, sum(alpha) = -.4330E+01, alpha =  -.6850E-01 -.3547E+00 -.2711E+01 -.4890E+00 -.7071E+00
mix (5): G =   0.010000, sum(alpha) = -.4330E+01, alpha =  -.6850E-01 -.3547E+00 -.2711E+01 -.4890E+00 -.7071E+00
mix (7): G =   0.010000, sum(alpha) = -.4330E+01, alpha =  -.6850E-01 -.3547E+00 -.2711E+01 -.4890E+00 -.7071E+00
mix (6): G =   0.010000, sum(alpha) = -.4330E+01, alpha =  -.6850E-01 -.3547E+00 -.2711E+01 -.4890E+00 -.7071E+00
mix (0): G =   0.010000, sum(alpha) = -.4330E+01, alpha =  -.6850E-01 -.3547E+00 -.2711E+01 -.4890E+00 -.7071E+00
mix (4): G =   0.010000, sum(alpha) = -.4330E+01, alpha =  -.6850E-01 -.3547E+00 -.2711E+01 -.4890E+00 -.7071E+00
mix (1): G =   0.010000, sum(alpha) = -.4330E+01, alpha =  -.6850E-01 -.3547E+00 -.2711E+01 -.4890E+00 -.7071E+00
   scf:    8    -2296.427165    -2299.004851    -2299.015765  0.024524 -2.787611 26.034619
     spin moment: S , {S} =    0.65175   0.65175   0.00000   0.00000
mix (4): Pulay
mix (4): n_hist = 6 / 6
mix (2): Pulay
mix (2): n_hist = 6 / 6
mix (6): Pulay
mix (0): Pulay
mix (0): n_hist = 6 / 6
mix (3): Pulay
mix (3): n_hist = 6 / 6
mix (5): Pulay
mix (5): n_hist = 6 / 6
mix (7): Pulay
mix (7): n_hist = 6 / 6
mix (6): n_hist = 6 / 6
mix (1): Pulay
mix (1): n_hist = 6 / 6
mix (7): G =   0.010000, sum(alpha) = 0.2303E+01, alpha =  -.3628E+00 -.1161E+01 -.4445E+00 -.4332E+00 0.4705E+01
mix (4): G =   0.010000, sum(alpha) = 0.2303E+01, alpha =  -.3628E+00 -.1161E+01 -.4445E+00 -.4332E+00 0.4705E+01
mix (0): G =   0.010000, sum(alpha) = 0.2303E+01, alpha =  -.3628E+00 -.1161E+01 -.4445E+00 -.4332E+00 0.4705E+01
mix (3): G =   0.010000, sum(alpha) = 0.2303E+01, alpha =  -.3628E+00 -.1161E+01 -.4445E+00 -.4332E+00 0.4705E+01
mix (5): G =   0.010000, sum(alpha) = 0.2303E+01, alpha =  -.3628E+00 -.1161E+01 -.4445E+00 -.4332E+00 0.4705E+01
mix (2): G =   0.010000, sum(alpha) = 0.2303E+01, alpha =  -.3628E+00 -.1161E+01 -.4445E+00 -.4332E+00 0.4705E+01
mix (6): G =   0.010000, sum(alpha) = 0.2303E+01, alpha =  -.3628E+00 -.1161E+01 -.4445E+00 -.4332E+00 0.4705E+01
mix (1): G =   0.010000, sum(alpha) = 0.2303E+01, alpha =  -.3628E+00 -.1161E+01 -.4445E+00 -.4332E+00 0.4705E+01
   scf:    9    -2329.047440    -2316.035174    -2316.108124  0.088912 -2.422203 14.272756
     spin moment: S , {S} =    0.97149   0.97149   0.00000   0.00000
mix (4): Pulay
mix (2): Pulay
mix (6): Pulay
mix (4): n_hist = 6 / 6
mix (2): n_hist = 6 / 6
mix (0): Pulay
mix (6): n_hist = 6 / 6
mix (0): n_hist = 6 / 6
mix (7): Pulay
mix (1): Pulay
mix (3): Pulay
mix (3): n_hist = 6 / 6
mix (5): Pulay
mix (5): n_hist = 6 / 6
mix (7): n_hist = 6 / 6
mix (1): n_hist = 6 / 6
mix (4): G =   0.010000, sum(alpha) = -.1179E+02, alpha =  0.1045E+01 -.2574E+00 -.1103E+01 -.1051E+02 -.9627E+00
mix (0): G =   0.010000, sum(alpha) = -.1179E+02, alpha =  0.1045E+01 -.2574E+00 -.1103E+01 -.1051E+02 -.9627E+00
mix (2): G =   0.010000, sum(alpha) = -.1179E+02, alpha =  0.1045E+01 -.2574E+00 -.1103E+01 -.1051E+02 -.9627E+00
mix (5): G =   0.010000, sum(alpha) = -.1179E+02, alpha =  0.1045E+01 -.2574E+00 -.1103E+01 -.1051E+02 -.9627E+00
mix (7): G =   0.010000, sum(alpha) = -.1179E+02, alpha =  0.1045E+01 -.2574E+00 -.1103E+01 -.1051E+02 -.9627E+00
mix (3): G =   0.010000, sum(alpha) = -.1179E+02, alpha =  0.1045E+01 -.2574E+00 -.1103E+01 -.1051E+02 -.9627E+00
mix (6): G =   0.010000, sum(alpha) = -.1179E+02, alpha =  0.1045E+01 -.2574E+00 -.1103E+01 -.1051E+02 -.9627E+00
mix (1): G =   0.010000, sum(alpha) = -.1179E+02, alpha =  0.1045E+01 -.2574E+00 -.1103E+01 -.1051E+02 -.9627E+00
   scf:   10    -2322.502206    -2326.462215    -2326.694779  0.242611 -4.109830  2.972389
     spin moment: S , {S} =    1.71163   1.71163   0.00000  -0.00000
mix (6): Pulay
mix (4): Pulay
mix (4): n_hist = 6 / 6
mix (2): Pulay
mix (2): n_hist = 6 / 6
mix (0): Pulay
mix (0): n_hist = 6 / 6
mix (6): n_hist = 6 / 6
mix (5): Pulay
mix (5): n_hist = 6 / 6
mix (7): Pulay
mix (7): n_hist = 6 / 6
mix (3): Pulay
mix (3): n_hist = 6 / 6
mix (1): Pulay
mix (1): n_hist = 6 / 6
mix (2): G =   0.010000, sum(alpha) = 0.1323E+01, alpha =  -.1760E+00 -.4300E+00 0.3359E+01 -.1511E+01 0.8057E-01
mix (0): G =   0.010000, sum(alpha) = 0.1323E+01, alpha =  -.1760E+00 -.4300E+00 0.3359E+01 -.1511E+01 0.8057E-01
mix (3): G =   0.010000, sum(alpha) = 0.1323E+01, alpha =  -.1760E+00 -.4300E+00 0.3359E+01 -.1511E+01 0.8057E-01
mix (4): G =   0.010000, sum(alpha) = 0.1323E+01, alpha =  -.1760E+00 -.4300E+00 0.3359E+01 -.1511E+01 0.8057E-01
mix (6): G =   0.010000, sum(alpha) = 0.1323E+01, alpha =  -.1760E+00 -.4300E+00 0.3359E+01 -.1511E+01 0.8057E-01
mix (5): G =   0.010000, sum(alpha) = 0.1323E+01, alpha =  -.1760E+00 -.4300E+00 0.3359E+01 -.1511E+01 0.8057E-01
mix (7): G =   0.010000, sum(alpha) = 0.1323E+01, alpha =  -.1760E+00 -.4300E+00 0.3359E+01 -.1511E+01 0.8057E-01
mix (1): G =   0.010000, sum(alpha) = 0.1323E+01, alpha =  -.1760E+00 -.4300E+00 0.3359E+01 -.1511E+01 0.8057E-01
   scf:   11    -2289.744667    -2315.578071    -2315.638735  0.217153 -3.523065 17.960691
     spin moment: S , {S} =    0.92258   0.92258   0.00000   0.00000
mix (2): Pulay
mix (4): Pulay
mix (2): n_hist = 6 / 6
mix (6): Pulay
mix (4): n_hist = 6 / 6
mix (6): n_hist = 6 / 6
mix (0): Pulay
mix (0): n_hist = 6 / 6
mix (7): Pulay
mix (3): Pulay
mix (5): Pulay
mix (7): n_hist = 6 / 6
mix (3): n_hist = 6 / 6
mix (5): n_hist = 6 / 6
mix (1): Pulay
mix (1): n_hist = 6 / 6
mix (0): G =   0.010000, sum(alpha) = -.1841E+03, alpha =  -.1307E+00 -.1105E+03 -.1649E+02 -.2750E+02 -.2947E+02
mix (6): G =   0.010000, sum(alpha) = -.1841E+03, alpha =  -.1307E+00 -.1105E+03 -.1649E+02 -.2750E+02 -.2947E+02
mix (5): G =   0.010000, sum(alpha) = -.1841E+03, alpha =  -.1307E+00 -.1105E+03 -.1649E+02 -.2750E+02 -.2947E+02
mix (3): G =   0.010000, sum(alpha) = -.1841E+03, alpha =  -.1307E+00 -.1105E+03 -.1649E+02 -.2750E+02 -.2947E+02
mix (4): G =   0.010000, sum(alpha) = -.1841E+03, alpha =  -.1307E+00 -.1105E+03 -.1649E+02 -.2750E+02 -.2947E+02
mix (2): G =   0.010000, sum(alpha) = -.1841E+03, alpha =  -.1307E+00 -.1105E+03 -.1649E+02 -.2750E+02 -.2947E+02
mix (7): G =   0.010000, sum(alpha) = -.1841E+03, alpha =  -.1307E+00 -.1105E+03 -.1649E+02 -.2750E+02 -.2947E+02
mix (1): G =   0.010000, sum(alpha) = -.1841E+03, alpha =  -.1307E+00 -.1105E+03 -.1649E+02 -.2750E+02 -.2947E+02
   scf:   12    -1863.023972    -2196.256941    -2196.280837  0.872650 -2.810991 61.608949
mix (1): Pulay
mix (1): n_hist = 6 / 6
mix (6): Pulay
mix (6): n_hist = 6 / 6
mix (5): Pulay
mix (5): n_hist = 6 / 6
mix (3): Pulay
mix (3): n_hist = 6 / 6
mix (4): Pulay
mix (4): n_hist = 6 / 6
mix (2): Pulay
mix (2): n_hist = 6 / 6
     spin moment: S , {S} =    0.27047   0.27047   0.00000   0.00000
mix (7): Pulay
mix (7): n_hist = 6 / 6
mix (0): Pulay
mix (0): n_hist = 6 / 6
mix (2): G =   0.010000, sum(alpha) = -.1636E+03, alpha =  -.9734E+02 -.1488E+02 -.2447E+02 -.2600E+02 -.9106E+00
mix (1): G =   0.010000, sum(alpha) = -.1636E+03, alpha =  -.9734E+02 -.1488E+02 -.2447E+02 -.2600E+02 -.9106E+00
mix (6): G =   0.010000, sum(alpha) = -.1636E+03, alpha =  -.9734E+02 -.1488E+02 -.2447E+02 -.2600E+02 -.9106E+00
mix (5): G =   0.010000, sum(alpha) = -.1636E+03, alpha =  -.9734E+02 -.1488E+02 -.2447E+02 -.2600E+02 -.9106E+00
mix (3): G =   0.010000, sum(alpha) = -.1636E+03, alpha =  -.9734E+02 -.1488E+02 -.2447E+02 -.2600E+02 -.9106E+00
mix (4): G =   0.010000, sum(alpha) = -.1636E+03, alpha =  -.9734E+02 -.1488E+02 -.2447E+02 -.2600E+02 -.9106E+00
mix (0): G =   0.010000, sum(alpha) = -.1636E+03, alpha =  -.9734E+02 -.1488E+02 -.2447E+02 -.2600E+02 -.9106E+00
mix (7): G =   0.010000, sum(alpha) = -.1636E+03, alpha =  -.9734E+02 -.1488E+02 -.2447E+02 -.2600E+02 -.9106E+00
mix (0): switching mixer --> pulay-GR
   scf:   13    -2208.692868    -2202.514391    -2202.543754  0.015949 -2.721918 60.395866
mix (4): Pulay, GR
mix (4): Direct mixing, alpha = 0.1000E-01
mix (2): Pulay, GR
mix (2): Direct mixing, alpha = 0.1000E-01
mix (1): Pulay, GR
mix (1): Direct mixing, alpha = 0.1000E-01
mix (6): Pulay, GR
mix (6): Direct mixing, alpha = 0.1000E-01
mix (5): Pulay, GR
mix (5): Direct mixing, alpha = 0.1000E-01
mix (3): Pulay, GR
mix (3): Direct mixing, alpha = 0.1000E-01
     spin moment: S , {S} =    0.29747   0.29747   0.00000   0.00000
mix (7): Pulay, GR
mix (7): Direct mixing, alpha = 0.1000E-01
mix (0): Pulay, GR
mix (0): Direct mixing, alpha = 0.1000E-01
   scf:   14    -2313.956534    -2263.231537    -2263.330272  0.150667 -2.770898 43.765066
mix (3): Pulay, GR
mix (3): n_hist = 2 / 6
mix (4): Pulay, GR
mix (4): n_hist = 2 / 6
mix (2): Pulay, GR
mix (2): n_hist = 2 / 6
mix (1): Pulay, GR
mix (1): n_hist = 2 / 6
mix (6): Pulay, GR
mix (6): n_hist = 2 / 6
mix (5): Pulay, GR
mix (5): n_hist = 2 / 6
     spin moment: S , {S} =    0.64593   0.64593   0.00000   0.00000
mix (7): Pulay, GR
mix (7): n_hist = 2 / 6
mix (0): Pulay, GR
mix (0): n_hist = 2 / 6
mix (7): G =   0.010000, sum(alpha) = 0.2451E+01, alpha =  0.2451E+01
mix (5): G =   0.010000, sum(alpha) = 0.2451E+01, alpha =  0.2451E+01
mix (3): G =   0.010000, sum(alpha) = 0.2451E+01, alpha =  0.2451E+01
mix (4): G =   0.010000, sum(alpha) = 0.2451E+01, alpha =  0.2451E+01
mix (2): G =   0.010000, sum(alpha) = 0.2451E+01, alpha =  0.2451E+01
mix (1): G =   0.010000, sum(alpha) = 0.2451E+01, alpha =  0.2451E+01
mix (6): G =   0.010000, sum(alpha) = 0.2451E+01, alpha =  0.2451E+01
mix (0): G =   0.010000, sum(alpha) = 0.2451E+01, alpha =  0.2451E+01
   scf:   15    -2162.692218    -2298.710550    -2298.716790  0.783999 -3.138713 26.716862
     spin moment: S , {S} =    0.46285   0.46285   0.00000   0.00000
mix (7): Pulay, GR
mix (5): Pulay, GR
mix (3): Pulay, GR
mix (3): Direct mixing, alpha = 0.1000E-01
mix (4): Pulay, GR
mix (4): Direct mixing, alpha = 0.1000E-01
mix (1): Pulay, GR
mix (1): Direct mixing, alpha = 0.1000E-01
mix (0): Pulay, GR
mix (0): Direct mixing, alpha = 0.1000E-01
mix (6): Pulay, GR
mix (6): Direct mixing, alpha = 0.1000E-01
mix (7): Direct mixing, alpha = 0.1000E-01
mix (5): Direct mixing, alpha = 0.1000E-01
mix (2): Pulay, GR
mix (2): Direct mixing, alpha = 0.1000E-01
   scf:   16    -2314.610816    -2307.006747    -2307.024277  0.045582 -3.070354 22.065303
mix (2): Pulay, GR
mix (2): n_hist = 3 / 6
mix (1): Pulay, GR
mix (1): n_hist = 3 / 6
mix (6): Pulay, GR
mix (6): n_hist = 3 / 6
mix (7): Pulay, GR
mix (7): n_hist = 3 / 6
mix (3): Pulay, GR
mix (3): n_hist = 3 / 6
mix (5): Pulay, GR
mix (5): n_hist = 3 / 6
mix (4): Pulay, GR
mix (4): n_hist = 3 / 6
     spin moment: S , {S} =    0.52777   0.52777   0.00000   0.00000
mix (0): Pulay, GR
mix (0): n_hist = 3 / 6
mix (4): G =   0.010000, sum(alpha) = -.6591E+01, alpha =  -.5918E+00 -.6000E+01
mix (2): G =   0.010000, sum(alpha) = -.6591E+01, alpha =  -.5918E+00 -.6000E+01
mix (1): G =   0.010000, sum(alpha) = -.6591E+01, alpha =  -.5918E+00 -.6000E+01
mix (6): G =   0.010000, sum(alpha) = -.6591E+01, alpha =  -.5918E+00 -.6000E+01
mix (7): G =   0.010000, sum(alpha) = -.6591E+01, alpha =  -.5918E+00 -.6000E+01
mix (3): G =   0.010000, sum(alpha) = -.6591E+01, alpha =  -.5918E+00 -.6000E+01
mix (5): G =   0.010000, sum(alpha) = -.6591E+01, alpha =  -.5918E+00 -.6000E+01
mix (0): G =   0.010000, sum(alpha) = -.6591E+01, alpha =  -.5918E+00 -.6000E+01
   scf:   17    -2305.534466    -2306.275097    -2306.294301  0.008970 -2.996221 22.187784
     spin moment: S , {S} =    0.54999   0.54999   0.00000   0.00000
mix (5): Pulay, GR
mix (4): Pulay, GR
mix (4): Direct mixing, alpha = 0.1000E-01
mix (2): Pulay, GR
mix (2): Direct mixing, alpha = 0.1000E-01
mix (1): Pulay, GR
mix (1): Direct mixing, alpha = 0.1000E-01
mix (6): Pulay, GR
mix (0): Pulay, GR
mix (0): Direct mixing, alpha = 0.1000E-01
mix (5): Direct mixing, alpha = 0.1000E-01
mix (7): Pulay, GR
mix (7): Direct mixing, alpha = 0.1000E-01
mix (6): Direct mixing, alpha = 0.1000E-01
mix (3): Pulay, GR
mix (3): Direct mixing, alpha = 0.1000E-01
   scf:   18    -2321.414505    -2314.328736    -2314.372021  0.050213 -2.944833 16.789974
mix (3): Pulay, GR
mix (3): n_hist = 4 / 6
mix (4): Pulay, GR
mix (4): n_hist = 4 / 6
mix (2): Pulay, GR
mix (2): n_hist = 4 / 6
mix (1): Pulay, GR
mix (1): n_hist = 4 / 6
mix (5): Pulay, GR
mix (5): n_hist = 4 / 6
mix (6): Pulay, GR
mix (6): n_hist = 4 / 6
     spin moment: S , {S} =    0.66028   0.66028   0.00000   0.00000
mix (7): Pulay, GR
mix (7): n_hist = 4 / 6
mix (0): Pulay, GR
mix (0): n_hist = 4 / 6
mix (6): G =   0.010000, sum(alpha) = 0.5356E+00, alpha =  -.8232E-01 -.7186E+01 0.7804E+01
mix (3): G =   0.010000, sum(alpha) = 0.5356E+00, alpha =  -.8232E-01 -.7186E+01 0.7804E+01
mix (4): G =   0.010000, sum(alpha) = 0.5356E+00, alpha =  -.8232E-01 -.7186E+01 0.7804E+01
mix (2): G =   0.010000, sum(alpha) = 0.5356E+00, alpha =  -.8232E-01 -.7186E+01 0.7804E+01
mix (1): G =   0.010000, sum(alpha) = 0.5356E+00, alpha =  -.8232E-01 -.7186E+01 0.7804E+01
mix (5): G =   0.010000, sum(alpha) = 0.5356E+00, alpha =  -.8232E-01 -.7186E+01 0.7804E+01
mix (0): G =   0.010000, sum(alpha) = 0.5356E+00, alpha =  -.8232E-01 -.7186E+01 0.7804E+01
mix (7): G =   0.010000, sum(alpha) = 0.5356E+00, alpha =  -.8232E-01 -.7186E+01 0.7804E+01
   scf:   19    -2330.072315    -2323.759684    -2323.812326  0.076824 -3.448942  9.396212
mix (3): Pulay, GR
mix (4): Pulay, GR
mix (2): Pulay, GR
mix (1): Pulay, GR
     spin moment: S , {S} =    0.55552   0.55552   0.00000  -0.00000
mix (7): Pulay, GR
mix (5): Pulay, GR
mix (6): Pulay, GR
mix (1): Direct mixing, alpha = 0.1000E-01
mix (3): Direct mixing, alpha = 0.1000E-01
mix (4): Direct mixing, alpha = 0.1000E-01
mix (2): Direct mixing, alpha = 0.1000E-01
mix (7): Direct mixing, alpha = 0.1000E-01
mix (5): Direct mixing, alpha = 0.1000E-01
mix (6): Direct mixing, alpha = 0.1000E-01
mix (0): Pulay, GR
mix (0): Direct mixing, alpha = 0.1000E-01
   scf:   20    -2327.059285    -2325.595660    -2325.665123  0.032141 -3.428513  6.078559
mix (2): Pulay, GR
mix (2): n_hist = 5 / 6
mix (7): Pulay, GR
mix (7): n_hist = 5 / 6
mix (5): Pulay, GR
mix (5): n_hist = 5 / 6
mix (1): Pulay, GR
mix (1): n_hist = 5 / 6
mix (3): Pulay, GR
mix (3): n_hist = 5 / 6
mix (4): Pulay, GR
mix (4): n_hist = 5 / 6
     spin moment: S , {S} =    0.61742   0.61742   0.00000  -0.00000
mix (6): Pulay, GR
mix (6): n_hist = 5 / 6
mix (0): Pulay, GR
mix (0): n_hist = 5 / 6
mix (4): G =   0.010000, sum(alpha) = -.4661E-02, alpha =  -.1458E+00 -.2963E+01 -.3663E+00 0.3471E+01
mix (2): G =   0.010000, sum(alpha) = -.4661E-02, alpha =  -.1458E+00 -.2963E+01 -.3663E+00 0.3471E+01
mix (7): G =   0.010000, sum(alpha) = -.4661E-02, alpha =  -.1458E+00 -.2963E+01 -.3663E+00 0.3471E+01
mix (5): G =   0.010000, sum(alpha) = -.4661E-02, alpha =  -.1458E+00 -.2963E+01 -.3663E+00 0.3471E+01
mix (1): G =   0.010000, sum(alpha) = -.4661E-02, alpha =  -.1458E+00 -.2963E+01 -.3663E+00 0.3471E+01
mix (3): G =   0.010000, sum(alpha) = -.4661E-02, alpha =  -.1458E+00 -.2963E+01 -.3663E+00 0.3471E+01
mix (0): G =   0.010000, sum(alpha) = -.4661E-02, alpha =  -.1458E+00 -.2963E+01 -.3663E+00 0.3471E+01
mix (6): G =   0.010000, sum(alpha) = -.4661E-02, alpha =  -.1458E+00 -.2963E+01 -.3663E+00 0.3471E+01
   scf:   21    -2311.975944    -2319.870786    -2319.903899  0.067646 -3.475781 14.040489
mix (3): Pulay, GR
mix (3): Direct mixing, alpha = 0.1000E-01
mix (4): Pulay, GR
mix (4): Direct mixing, alpha = 0.1000E-01
mix (2): Pulay, GR
mix (2): Direct mixing, alpha = 0.1000E-01
mix (7): Pulay, GR
mix (5): Pulay, GR
mix (5): Direct mixing, alpha = 0.1000E-01
mix (1): Pulay, GR
mix (1): Direct mixing, alpha = 0.1000E-01
     spin moment: S , {S} =    0.48378   0.48378   0.00000   0.00000
mix (6): Pulay, GR
mix (6): Direct mixing, alpha = 0.1000E-01
mix (7): Direct mixing, alpha = 0.1000E-01
mix (0): Pulay, GR
mix (0): Direct mixing, alpha = 0.1000E-01
   scf:   22    -2326.268326    -2323.351358    -2323.403239  0.035282 -3.443001  9.931452
mix (1): Pulay, GR
mix (1): n_hist = 6 / 6
mix (3): Pulay, GR
mix (3): n_hist = 6 / 6
mix (4): Pulay, GR
mix (4): n_hist = 6 / 6
mix (2): Pulay, GR
mix (2): n_hist = 6 / 6
mix (5): Pulay, GR
mix (5): n_hist = 6 / 6
     spin moment: S , {S} =    0.55227   0.55227   0.00000   0.00000
mix (7): Pulay, GR
mix (7): n_hist = 6 / 6
mix (6): Pulay, GR
mix (6): n_hist = 6 / 6
mix (0): Pulay, GR
mix (0): n_hist = 6 / 6
mix (5): G =   0.010000, sum(alpha) = 0.1515E+02, alpha =  -.1298E+00 -.5939E+00 0.3003E+00 0.7600E+01 0.7978E+01
mix (1): G =   0.010000, sum(alpha) = 0.1515E+02, alpha =  -.1298E+00 -.5939E+00 0.3003E+00 0.7600E+01 0.7978E+01
mix (3): G =   0.010000, sum(alpha) = 0.1515E+02, alpha =  -.1298E+00 -.5939E+00 0.3003E+00 0.7600E+01 0.7978E+01
mix (4): G =   0.010000, sum(alpha) = 0.1515E+02, alpha =  -.1298E+00 -.5939E+00 0.3003E+00 0.7600E+01 0.7978E+01
mix (7): G =   0.010000, sum(alpha) = 0.1515E+02, alpha =  -.1298E+00 -.5939E+00 0.3003E+00 0.7600E+01 0.7978E+01
mix (2): G =   0.010000, sum(alpha) = 0.1515E+02, alpha =  -.1298E+00 -.5939E+00 0.3003E+00 0.7600E+01 0.7978E+01
mix (0): G =   0.010000, sum(alpha) = 0.1515E+02, alpha =  -.1298E+00 -.5939E+00 0.3003E+00 0.7600E+01 0.7978E+01
mix (6): G =   0.010000, sum(alpha) = 0.1515E+02, alpha =  -.1298E+00 -.5939E+00 0.3003E+00 0.7600E+01 0.7978E+01
   scf:   23    -2322.014971    -2326.336295    -2326.456736  0.167165 -3.504623  4.528271
     spin moment: S , {S} =    0.74239   0.74239   0.00000   0.00000
mix (6): Pulay, GR
mix (2): Pulay, GR
mix (2): Direct mixing, alpha = 0.1000E-01
mix (5): Pulay, GR
mix (1): Pulay, GR
mix (1): Direct mixing, alpha = 0.1000E-01
mix (4): Pulay, GR
mix (4): Direct mixing, alpha = 0.1000E-01
mix (0): Pulay, GR
mix (0): Direct mixing, alpha = 0.1000E-01
mix (6): Direct mixing, alpha = 0.1000E-01
mix (5): Direct mixing, alpha = 0.1000E-01
mix (7): Pulay, GR
mix (7): Direct mixing, alpha = 0.1000E-01
mix (3): Pulay, GR
mix (3): Direct mixing, alpha = 0.1000E-01
   scf:   24    -2327.183201    -2326.843650    -2326.956101  0.025126 -3.514712  2.328479
mix (4): Pulay, GR
mix (4): n_hist = 6 / 6
mix (3): Pulay, GR
mix (3): n_hist = 6 / 6
mix (2): Pulay, GR
mix (2): n_hist = 6 / 6
mix (6): Pulay, GR
mix (6): n_hist = 6 / 6
mix (7): Pulay, GR
mix (7): n_hist = 6 / 6
mix (1): Pulay, GR
mix (1): n_hist = 6 / 6
mix (5): Pulay, GR
mix (5): n_hist = 6 / 6
     spin moment: S , {S} =    0.71269   0.71269   0.00000   0.00000
mix (0): Pulay, GR
mix (0): n_hist = 6 / 6
mix (5): G =   0.010000, sum(alpha) = -.1630E+00, alpha =  0.4642E+01 0.1153E+01 0.1142E+02 -.1120E+01 -.1626E+02
mix (4): G =   0.010000, sum(alpha) = -.1630E+00, alpha =  0.4642E+01 0.1153E+01 0.1142E+02 -.1120E+01 -.1626E+02
mix (3): G =   0.010000, sum(alpha) = -.1630E+00, alpha =  0.4642E+01 0.1153E+01 0.1142E+02 -.1120E+01 -.1626E+02
mix (2): G =   0.010000, sum(alpha) = -.1630E+00, alpha =  0.4642E+01 0.1153E+01 0.1142E+02 -.1120E+01 -.1626E+02
mix (6): G =   0.010000, sum(alpha) = -.1630E+00, alpha =  0.4642E+01 0.1153E+01 0.1142E+02 -.1120E+01 -.1626E+02
mix (7): G =   0.010000, sum(alpha) = -.1630E+00, alpha =  0.4642E+01 0.1153E+01 0.1142E+02 -.1120E+01 -.1626E+02
mix (1): G =   0.010000, sum(alpha) = -.1630E+00, alpha =  0.4642E+01 0.1153E+01 0.1142E+02 -.1120E+01 -.1626E+02
mix (0): G =   0.010000, sum(alpha) = -.1630E+00, alpha =  0.4642E+01 0.1153E+01 0.1142E+02 -.1120E+01 -.1626E+02
mix (0): switching mixer --> pulay
   scf:   25    -2310.547890    -2320.819780    -2320.960559  0.119138 -3.521895 13.213083
     spin moment: S , {S} =    0.73630   0.73630   0.00000   0.00000
mix (1): Pulay
mix (1): n_hist = 6 / 6
mix (4): Pulay
mix (4): n_hist = 6 / 6
mix (2): Pulay
mix (2): n_hist = 6 / 6
mix (6): Pulay
mix (0): Pulay
mix (0): n_hist = 6 / 6
mix (5): Pulay
mix (5): n_hist = 6 / 6
mix (7): Pulay
mix (7): n_hist = 6 / 6
mix (6): n_hist = 6 / 6
mix (3): Pulay
mix (3): n_hist = 6 / 6
mix (0): G =   0.010000, sum(alpha) = -.4967E+00, alpha =  -.5361E+00 -.3464E-01 0.1082E+00 -.4640E-01 0.1227E-01
mix (1): G =   0.010000, sum(alpha) = -.4967E+00, alpha =  -.5361E+00 -.3464E-01 0.1082E+00 -.4640E-01 0.1227E-01
mix (4): G =   0.010000, sum(alpha) = -.4967E+00, alpha =  -.5361E+00 -.3464E-01 0.1082E+00 -.4640E-01 0.1227E-01
mix (2): G =   0.010000, sum(alpha) = -.4967E+00, alpha =  -.5361E+00 -.3464E-01 0.1082E+00 -.4640E-01 0.1227E-01
mix (7): G =   0.010000, sum(alpha) = -.4967E+00, alpha =  -.5361E+00 -.3464E-01 0.1082E+00 -.4640E-01 0.1227E-01
mix (6): G =   0.010000, sum(alpha) = -.4967E+00, alpha =  -.5361E+00 -.3464E-01 0.1082E+00 -.4640E-01 0.1227E-01
mix (5): G =   0.010000, sum(alpha) = -.4967E+00, alpha =  -.5361E+00 -.3464E-01 0.1082E+00 -.4640E-01 0.1227E-01
mix (3): G =   0.010000, sum(alpha) = -.4967E+00, alpha =  -.5361E+00 -.3464E-01 0.1082E+00 -.4640E-01 0.1227E-01
   scf:   26    -2304.564759    -2322.792176    -2322.841169  0.269003 -3.634142 11.008896
     spin moment: S , {S} =    0.47342   0.47342   0.00000   0.00000
mix (2): Pulay
mix (2): n_hist = 6 / 6
mix (5): Pulay
mix (1): Pulay
mix (1): n_hist = 6 / 6
mix (4): Pulay
mix (4): n_hist = 6 / 6
mix (6): Pulay
mix (6): n_hist = 6 / 6
mix (0): Pulay
mix (0): n_hist = 6 / 6
mix (7): Pulay
mix (7): n_hist = 6 / 6
mix (5): n_hist = 6 / 6
mix (3): Pulay
mix (3): n_hist = 6 / 6
mix (6): G =   0.010000, sum(alpha) = -.1087E+00, alpha =  -.1322E+00 -.3814E+00 0.1196E+00 -.1298E+00 0.4152E+00
mix (2): G =   0.010000, sum(alpha) = -.1087E+00, alpha =  -.1322E+00 -.3814E+00 0.1196E+00 -.1298E+00 0.4152E+00
mix (5): G =   0.010000, sum(alpha) = -.1087E+00, alpha =  -.1322E+00 -.3814E+00 0.1196E+00 -.1298E+00 0.4152E+00
mix (0): G =   0.010000, sum(alpha) = -.1087E+00, alpha =  -.1322E+00 -.3814E+00 0.1196E+00 -.1298E+00 0.4152E+00
mix (7): G =   0.010000, sum(alpha) = -.1087E+00, alpha =  -.1322E+00 -.3814E+00 0.1196E+00 -.1298E+00 0.4152E+00
mix (1): G =   0.010000, sum(alpha) = -.1087E+00, alpha =  -.1322E+00 -.3814E+00 0.1196E+00 -.1298E+00 0.4152E+00
mix (4): G =   0.010000, sum(alpha) = -.1087E+00, alpha =  -.1322E+00 -.3814E+00 0.1196E+00 -.1298E+00 0.4152E+00
mix (3): G =   0.010000, sum(alpha) = -.1087E+00, alpha =  -.1322E+00 -.3814E+00 0.1196E+00 -.1298E+00 0.4152E+00
   scf:   27    -2323.492549    -2326.625843    -2326.741118  0.169849 -3.438496  3.598197
     spin moment: S , {S} =    0.67638   0.67638   0.00000   0.00000
mix (4): Pulay
mix (4): n_hist = 6 / 6
mix (6): Pulay
mix (2): Pulay
mix (2): n_hist = 6 / 6
mix (5): Pulay
mix (5): n_hist = 6 / 6
mix (1): Pulay
mix (1): n_hist = 6 / 6
mix (0): Pulay
mix (0): n_hist = 6 / 6
mix (6): n_hist = 6 / 6
mix (7): Pulay
mix (7): n_hist = 6 / 6
mix (3): Pulay
mix (3): n_hist = 6 / 6
mix (1): G =   0.010000, sum(alpha) = -.6334E+00, alpha =  -.5668E-01 0.1056E+00 -.6229E-01 0.1816E+00 -.8016E+00
mix (4): G =   0.010000, sum(alpha) = -.6334E+00, alpha =  -.5668E-01 0.1056E+00 -.6229E-01 0.1816E+00 -.8016E+00
mix (0): G =   0.010000, sum(alpha) = -.6334E+00, alpha =  -.5668E-01 0.1056E+00 -.6229E-01 0.1816E+00 -.8016E+00
mix (2): G =   0.010000, sum(alpha) = -.6334E+00, alpha =  -.5668E-01 0.1056E+00 -.6229E-01 0.1816E+00 -.8016E+00
mix (7): G =   0.010000, sum(alpha) = -.6334E+00, alpha =  -.5668E-01 0.1056E+00 -.6229E-01 0.1816E+00 -.8016E+00
mix (6): G =   0.010000, sum(alpha) = -.6334E+00, alpha =  -.5668E-01 0.1056E+00 -.6229E-01 0.1816E+00 -.8016E+00
mix (5): G =   0.010000, sum(alpha) = -.6334E+00, alpha =  -.5668E-01 0.1056E+00 -.6229E-01 0.1816E+00 -.8016E+00
mix (3): G =   0.010000, sum(alpha) = -.6334E+00, alpha =  -.5668E-01 0.1056E+00 -.6229E-01 0.1816E+00 -.8016E+00
   scf:   28    -2327.126704    -2326.940099    -2327.046648  0.025400 -3.488584  1.576814
mix (1): Pulay
mix (1): n_hist = 6 / 6
mix (4): Pulay
mix (4): n_hist = 6 / 6
mix (3): Pulay
mix (3): n_hist = 6 / 6
mix (2): Pulay
mix (2): n_hist = 6 / 6
mix (6): Pulay
mix (6): n_hist = 6 / 6
     spin moment: S , {S} =    0.61788   0.61788   0.00000   0.00000
mix (5): Pulay
mix (5): n_hist = 6 / 6
mix (7): Pulay
mix (7): n_hist = 6 / 6
mix (0): Pulay
mix (0): n_hist = 6 / 6
mix (7): G =   0.010000, sum(alpha) = 0.3267E+00, alpha =  0.6859E-01 -.7184E-01 0.3329E-01 -.5486E+00 0.8453E+00
mix (6): G =   0.010000, sum(alpha) = 0.3267E+00, alpha =  0.6859E-01 -.7184E-01 0.3329E-01 -.5486E+00 0.8453E+00
mix (1): G =   0.010000, sum(alpha) = 0.3267E+00, alpha =  0.6859E-01 -.7184E-01 0.3329E-01 -.5486E+00 0.8453E+00
mix (4): G =   0.010000, sum(alpha) = 0.3267E+00, alpha =  0.6859E-01 -.7184E-01 0.3329E-01 -.5486E+00 0.8453E+00
mix (3): G =   0.010000, sum(alpha) = 0.3267E+00, alpha =  0.6859E-01 -.7184E-01 0.3329E-01 -.5486E+00 0.8453E+00
mix (5): G =   0.010000, sum(alpha) = 0.3267E+00, alpha =  0.6859E-01 -.7184E-01 0.3329E-01 -.5486E+00 0.8453E+00
mix (2): G =   0.010000, sum(alpha) = 0.3267E+00, alpha =  0.6859E-01 -.7184E-01 0.3329E-01 -.5486E+00 0.8453E+00
mix (0): G =   0.010000, sum(alpha) = 0.3267E+00, alpha =  0.6859E-01 -.7184E-01 0.3329E-01 -.5486E+00 0.8453E+00
   scf:   29    -2326.963940    -2326.952264    -2327.056811  0.006775 -3.510458  1.382658
     spin moment: S , {S} =    0.57978   0.57978   0.00000   0.00000
mix (2): Pulay
mix (2): n_hist = 6 / 6
mix (7): Pulay
mix (6): Pulay
mix (6): n_hist = 6 / 6
mix (1): Pulay
mix (1): n_hist = 6 / 6
mix (3): Pulay
mix (3): n_hist = 6 / 6
mix (5): Pulay
mix (5): n_hist = 6 / 6
mix (0): Pulay
mix (7): n_hist = 6 / 6
mix (0): n_hist = 6 / 6
mix (4): Pulay
mix (4): n_hist = 6 / 6
mix (5): G =   0.010000, sum(alpha) = 0.1909E+01, alpha =  -.9843E-01 0.5538E-01 -.4639E+00 -.1329E+01 0.3744E+01
mix (2): G =   0.010000, sum(alpha) = 0.1909E+01, alpha =  -.9843E-01 0.5538E-01 -.4639E+00 -.1329E+01 0.3744E+01
mix (7): G =   0.010000, sum(alpha) = 0.1909E+01, alpha =  -.9843E-01 0.5538E-01 -.4639E+00 -.1329E+01 0.3744E+01
mix (6): G =   0.010000, sum(alpha) = 0.1909E+01, alpha =  -.9843E-01 0.5538E-01 -.4639E+00 -.1329E+01 0.3744E+01
mix (0): G =   0.010000, sum(alpha) = 0.1909E+01, alpha =  -.9843E-01 0.5538E-01 -.4639E+00 -.1329E+01 0.3744E+01
mix (1): G =   0.010000, sum(alpha) = 0.1909E+01, alpha =  -.9843E-01 0.5538E-01 -.4639E+00 -.1329E+01 0.3744E+01
mix (3): G =   0.010000, sum(alpha) = 0.1909E+01, alpha =  -.9843E-01 0.5538E-01 -.4639E+00 -.1329E+01 0.3744E+01
mix (4): G =   0.010000, sum(alpha) = 0.1909E+01, alpha =  -.9843E-01 0.5538E-01 -.4639E+00 -.1329E+01 0.3744E+01
   scf:   30    -2326.972560    -2327.001819    -2327.099490  0.019773 -3.534827  0.277449
mix (3): Pulay
mix (2): Pulay
mix (4): Pulay
mix (1): Pulay
mix (1): n_hist = 6 / 6
     spin moment: S , {S} =    0.55444   0.55444   0.00000   0.00000
mix (5): Pulay
mix (3): n_hist = 6 / 6
mix (7): Pulay
mix (6): Pulay
mix (6): n_hist = 6 / 6
mix (2): n_hist = 6 / 6
mix (4): n_hist = 6 / 6
mix (5): n_hist = 6 / 6
mix (7): n_hist = 6 / 6
mix (0): Pulay
mix (0): n_hist = 6 / 6
mix (1): G =   0.010000, sum(alpha) = -.1122E+02, alpha =  -.1830E+00 -.2052E+01 -.4584E+01 0.7107E+01 -.1151E+02
mix (7): G =   0.010000, sum(alpha) = -.1122E+02, alpha =  -.1830E+00 -.2052E+01 -.4584E+01 0.7107E+01 -.1151E+02
mix (4): G =   0.010000, sum(alpha) = -.1122E+02, alpha =  -.1830E+00 -.2052E+01 -.4584E+01 0.7107E+01 -.1151E+02
mix (3): G =   0.010000, sum(alpha) = -.1122E+02, alpha =  -.1830E+00 -.2052E+01 -.4584E+01 0.7107E+01 -.1151E+02
mix (5): G =   0.010000, sum(alpha) = -.1122E+02, alpha =  -.1830E+00 -.2052E+01 -.4584E+01 0.7107E+01 -.1151E+02
mix (6): G =   0.010000, sum(alpha) = -.1122E+02, alpha =  -.1830E+00 -.2052E+01 -.4584E+01 0.7107E+01 -.1151E+02
mix (2): G =   0.010000, sum(alpha) = -.1122E+02, alpha =  -.1830E+00 -.2052E+01 -.4584E+01 0.7107E+01 -.1151E+02
mix (0): G =   0.010000, sum(alpha) = -.1122E+02, alpha =  -.1830E+00 -.2052E+01 -.4584E+01 0.7107E+01 -.1151E+02
   scf:   31    -2323.738037    -2325.869690    -2325.943201  0.067079 -3.566423  5.617573
     spin moment: S , {S} =    0.54036   0.54036   0.00000   0.00000
mix (1): Pulay
mix (4): Pulay
mix (3): Pulay
mix (7): Pulay
mix (1): n_hist = 6 / 6
mix (4): n_hist = 6 / 6
mix (5): Pulay
mix (3): n_hist = 6 / 6
mix (0): Pulay
mix (5): n_hist = 6 / 6
mix (7): n_hist = 6 / 6
mix (0): n_hist = 6 / 6
mix (2): Pulay
mix (6): Pulay
mix (6): n_hist = 6 / 6
mix (2): n_hist = 6 / 6
mix (0): G =   0.010000, sum(alpha) = -.3924E+01, alpha =  -.1442E+01 -.5262E+01 0.4928E+01 0.1361E+01 -.3509E+01
mix (3): G =   0.010000, sum(alpha) = -.3924E+01, alpha =  -.1442E+01 -.5262E+01 0.4928E+01 0.1361E+01 -.3509E+01
mix (7): G =   0.010000, sum(alpha) = -.3924E+01, alpha =  -.1442E+01 -.5262E+01 0.4928E+01 0.1361E+01 -.3509E+01
mix (5): G =   0.010000, sum(alpha) = -.3924E+01, alpha =  -.1442E+01 -.5262E+01 0.4928E+01 0.1361E+01 -.3509E+01
mix (1): G =   0.010000, sum(alpha) = -.3924E+01, alpha =  -.1442E+01 -.5262E+01 0.4928E+01 0.1361E+01 -.3509E+01
mix (4): G =   0.010000, sum(alpha) = -.3924E+01, alpha =  -.1442E+01 -.5262E+01 0.4928E+01 0.1361E+01 -.3509E+01
mix (6): G =   0.010000, sum(alpha) = -.3924E+01, alpha =  -.1442E+01 -.5262E+01 0.4928E+01 0.1361E+01 -.3509E+01
mix (2): G =   0.010000, sum(alpha) = -.3924E+01, alpha =  -.1442E+01 -.5262E+01 0.4928E+01 0.1361E+01 -.3509E+01
   scf:   32    -2327.327136    -2326.750671    -2326.834233  0.038777 -3.616445  2.652692
     spin moment: S , {S} =    0.40018   0.40018   0.00000  -0.00000
mix (3): Pulay
mix (3): n_hist = 6 / 6
mix (7): Pulay
mix (5): Pulay
mix (1): Pulay
mix (1): n_hist = 6 / 6
mix (4): Pulay
mix (4): n_hist = 6 / 6
mix (6): Pulay
mix (6): n_hist = 6 / 6
mix (0): Pulay
mix (0): n_hist = 6 / 6
mix (7): n_hist = 6 / 6
mix (5): n_hist = 6 / 6
mix (2): Pulay
mix (2): n_hist = 6 / 6
mix (4): G =   0.010000, sum(alpha) = -.3195E+00, alpha =  0.1739E+00 0.1834E+01 -.2893E+01 0.3328E+00 0.2324E+00
mix (6): G =   0.010000, sum(alpha) = -.3195E+00, alpha =  0.1739E+00 0.1834E+01 -.2893E+01 0.3328E+00 0.2324E+00
mix (3): G =   0.010000, sum(alpha) = -.3195E+00, alpha =  0.1739E+00 0.1834E+01 -.2893E+01 0.3328E+00 0.2324E+00
mix (0): G =   0.010000, sum(alpha) = -.3195E+00, alpha =  0.1739E+00 0.1834E+01 -.2893E+01 0.3328E+00 0.2324E+00
mix (7): G =   0.010000, sum(alpha) = -.3195E+00, alpha =  0.1739E+00 0.1834E+01 -.2893E+01 0.3328E+00 0.2324E+00
mix (1): G =   0.010000, sum(alpha) = -.3195E+00, alpha =  0.1739E+00 0.1834E+01 -.2893E+01 0.3328E+00 0.2324E+00
mix (2): G =   0.010000, sum(alpha) = -.3195E+00, alpha =  0.1739E+00 0.1834E+01 -.2893E+01 0.3328E+00 0.2324E+00
mix (5): G =   0.010000, sum(alpha) = -.3195E+00, alpha =  0.1739E+00 0.1834E+01 -.2893E+01 0.3328E+00 0.2324E+00
   scf:   33    -2327.017307    -2326.997920    -2327.091979  0.031929 -3.614526  0.108617
mix (1): Pulay
mix (1): n_hist = 6 / 6
mix (2): Pulay
mix (2): n_hist = 6 / 6
mix (4): Pulay
mix (4): n_hist = 6 / 6
mix (6): Pulay
mix (6): n_hist = 6 / 6
mix (3): Pulay
mix (3): n_hist = 6 / 6
mix (5): Pulay
mix (5): n_hist = 6 / 6
mix (7): Pulay
mix (7): n_hist = 6 / 6
     spin moment: S , {S} =    0.34606   0.34606   0.00000  -0.00000
mix (0): Pulay
mix (0): n_hist = 6 / 6
mix (7): G =   0.010000, sum(alpha) = 0.4725E+01, alpha =  -.8285E+01 0.1238E+02 -.2054E+01 -.9107E+00 0.3594E+01
mix (1): G =   0.010000, sum(alpha) = 0.4725E+01, alpha =  -.8285E+01 0.1238E+02 -.2054E+01 -.9107E+00 0.3594E+01
mix (2): G =   0.010000, sum(alpha) = 0.4725E+01, alpha =  -.8285E+01 0.1238E+02 -.2054E+01 -.9107E+00 0.3594E+01
mix (4): G =   0.010000, sum(alpha) = 0.4725E+01, alpha =  -.8285E+01 0.1238E+02 -.2054E+01 -.9107E+00 0.3594E+01
mix (6): G =   0.010000, sum(alpha) = 0.4725E+01, alpha =  -.8285E+01 0.1238E+02 -.2054E+01 -.9107E+00 0.3594E+01
mix (3): G =   0.010000, sum(alpha) = 0.4725E+01, alpha =  -.8285E+01 0.1238E+02 -.2054E+01 -.9107E+00 0.3594E+01
mix (5): G =   0.010000, sum(alpha) = 0.4725E+01, alpha =  -.8285E+01 0.1238E+02 -.2054E+01 -.9107E+00 0.3594E+01
mix (0): G =   0.010000, sum(alpha) = 0.4725E+01, alpha =  -.8285E+01 0.1238E+02 -.2054E+01 -.9107E+00 0.3594E+01
   scf:   34    -2326.798573    -2326.933436    -2327.033958  0.019806 -3.624621  1.309821
     spin moment: S , {S} =    0.32572   0.32572   0.00000   0.00000
mix (5): Pulay
mix (7): Pulay
mix (1): Pulay
mix (1): n_hist = 6 / 6
mix (2): Pulay
mix (2): n_hist = 6 / 6
mix (6): Pulay
mix (6): n_hist = 6 / 6
mix (3): Pulay
mix (3): n_hist = 6 / 6
mix (0): Pulay
mix (0): n_hist = 6 / 6
mix (5): n_hist = 6 / 6
mix (7): n_hist = 6 / 6
mix (4): Pulay
mix (4): n_hist = 6 / 6
mix (3): G =   0.010000, sum(alpha) = -.3867E+00, alpha =  -.1555E+01 0.6759E+00 -.1302E+00 -.4273E+00 0.1050E+01
mix (0): G =   0.010000, sum(alpha) = -.3867E+00, alpha =  -.1555E+01 0.6759E+00 -.1302E+00 -.4273E+00 0.1050E+01
mix (5): G =   0.010000, sum(alpha) = -.3867E+00, alpha =  -.1555E+01 0.6759E+00 -.1302E+00 -.4273E+00 0.1050E+01
mix (1): G =   0.010000, sum(alpha) = -.3867E+00, alpha =  -.1555E+01 0.6759E+00 -.1302E+00 -.4273E+00 0.1050E+01
mix (7): G =   0.010000, sum(alpha) = -.3867E+00, alpha =  -.1555E+01 0.6759E+00 -.1302E+00 -.4273E+00 0.1050E+01
mix (2): G =   0.010000, sum(alpha) = -.3867E+00, alpha =  -.1555E+01 0.6759E+00 -.1302E+00 -.4273E+00 0.1050E+01
mix (6): G =   0.010000, sum(alpha) = -.3867E+00, alpha =  -.1555E+01 0.6759E+00 -.1302E+00 -.4273E+00 0.1050E+01
mix (4): G =   0.010000, sum(alpha) = -.3867E+00, alpha =  -.1555E+01 0.6759E+00 -.1302E+00 -.4273E+00 0.1050E+01
   scf:   35    -2326.829065    -2326.969543    -2327.062395  0.027720 -3.619039  0.936767
     spin moment: S , {S} =    0.42130   0.42130   0.00000   0.00000
mix (6): Pulay
mix (3): Pulay
mix (3): n_hist = 6 / 6
mix (5): Pulay
mix (5): n_hist = 6 / 6
mix (1): Pulay
mix (1): n_hist = 6 / 6
mix (7): Pulay
mix (7): n_hist = 6 / 6
mix (2): Pulay
mix (2): n_hist = 6 / 6
mix (0): Pulay
mix (6): n_hist = 6 / 6
mix (0): n_hist = 6 / 6
mix (4): Pulay
mix (4): n_hist = 6 / 6
mix (2): G =   0.010000, sum(alpha) = -.1298E+02, alpha =  -.9468E+00 -.1506E+01 -.9155E+01 0.5640E+01 -.7017E+01
mix (6): G =   0.010000, sum(alpha) = -.1298E+02, alpha =  -.9468E+00 -.1506E+01 -.9155E+01 0.5640E+01 -.7017E+01
mix (0): G =   0.010000, sum(alpha) = -.1298E+02, alpha =  -.9468E+00 -.1506E+01 -.9155E+01 0.5640E+01 -.7017E+01
mix (3): G =   0.010000, sum(alpha) = -.1298E+02, alpha =  -.9468E+00 -.1506E+01 -.9155E+01 0.5640E+01 -.7017E+01
mix (5): G =   0.010000, sum(alpha) = -.1298E+02, alpha =  -.9468E+00 -.1506E+01 -.9155E+01 0.5640E+01 -.7017E+01
mix (1): G =   0.010000, sum(alpha) = -.1298E+02, alpha =  -.9468E+00 -.1506E+01 -.9155E+01 0.5640E+01 -.7017E+01
mix (7): G =   0.010000, sum(alpha) = -.1298E+02, alpha =  -.9468E+00 -.1506E+01 -.9155E+01 0.5640E+01 -.7017E+01
mix (4): G =   0.010000, sum(alpha) = -.1298E+02, alpha =  -.9468E+00 -.1506E+01 -.9155E+01 0.5640E+01 -.7017E+01
   scf:   36    -2326.608888    -2326.819768    -2326.908158  0.016940 -3.641017  2.292998
mix (2): Pulay
mix (2): n_hist = 6 / 6
mix (4): Pulay
mix (4): n_hist = 6 / 6
mix (3): Pulay
mix (3): n_hist = 6 / 6
mix (5): Pulay
mix (5): n_hist = 6 / 6
mix (1): Pulay
mix (1): n_hist = 6 / 6
     spin moment: S , {S} =    0.46415   0.46415   0.00000  -0.00000
mix (7): Pulay
mix (7): n_hist = 6 / 6
mix (6): Pulay
mix (6): n_hist = 6 / 6
mix (0): Pulay
mix (0): n_hist = 6 / 6
mix (1): G =   0.010000, sum(alpha) = 0.1834E+01, alpha =  -.2001E+00 0.8726E+00 0.6471E+00 -.4869E+00 0.1001E+01
mix (2): G =   0.010000, sum(alpha) = 0.1834E+01, alpha =  -.2001E+00 0.8726E+00 0.6471E+00 -.4869E+00 0.1001E+01
mix (4): G =   0.010000, sum(alpha) = 0.1834E+01, alpha =  -.2001E+00 0.8726E+00 0.6471E+00 -.4869E+00 0.1001E+01
mix (3): G =   0.010000, sum(alpha) = 0.1834E+01, alpha =  -.2001E+00 0.8726E+00 0.6471E+00 -.4869E+00 0.1001E+01
mix (5): G =   0.010000, sum(alpha) = 0.1834E+01, alpha =  -.2001E+00 0.8726E+00 0.6471E+00 -.4869E+00 0.1001E+01
mix (0): G =   0.010000, sum(alpha) = 0.1834E+01, alpha =  -.2001E+00 0.8726E+00 0.6471E+00 -.4869E+00 0.1001E+01
mix (6): G =   0.010000, sum(alpha) = 0.1834E+01, alpha =  -.2001E+00 0.8726E+00 0.6471E+00 -.4869E+00 0.1001E+01
mix (7): G =   0.010000, sum(alpha) = 0.1834E+01, alpha =  -.2001E+00 0.8726E+00 0.6471E+00 -.4869E+00 0.1001E+01
mix (0): switching mixer --> pulay-GR
   scf:   37    -2327.047886    -2326.998456    -2327.095437  0.023410 -3.665451  0.404514
mix (1): Pulay, GR
mix (2): Pulay, GR
mix (4): Pulay, GR
mix (4): Direct mixing, alpha = 0.1000E-01
mix (3): Pulay, GR
mix (3): Direct mixing, alpha = 0.1000E-01
     spin moment: S , {S} =    0.46177   0.46177   0.00000  -0.00001
mix (7): Pulay, GR
mix (5): Pulay, GR
mix (6): Pulay, GR
mix (1): Direct mixing, alpha = 0.1000E-01
mix (2): Direct mixing, alpha = 0.1000E-01
mix (7): Direct mixing, alpha = 0.1000E-01
mix (5): Direct mixing, alpha = 0.1000E-01
mix (6): Direct mixing, alpha = 0.1000E-01
mix (0): Pulay, GR
mix (0): Direct mixing, alpha = 0.1000E-01
   scf:   38    -2327.004380    -2327.002110    -2327.099991  0.002304 -3.664376  0.204110
mix (2): Pulay, GR
mix (2): n_hist = 6 / 6
mix (7): Pulay, GR
mix (7): n_hist = 6 / 6
mix (3): Pulay, GR
mix (3): n_hist = 6 / 6
mix (5): Pulay, GR
mix (5): n_hist = 6 / 6
mix (1): Pulay, GR
mix (1): n_hist = 6 / 6
mix (4): Pulay, GR
mix (4): n_hist = 6 / 6
     spin moment: S , {S} =    0.46574   0.46574   0.00000  -0.00000
mix (6): Pulay, GR
mix (6): n_hist = 6 / 6
mix (0): Pulay, GR
mix (0): n_hist = 6 / 6
mix (4): G =   0.010000, sum(alpha) = -.8979E+01, alpha =  -.7590E-01 -.7577E+00 0.8987E-01 0.5011E+00 -.8737E+01
mix (2): G =   0.010000, sum(alpha) = -.8979E+01, alpha =  -.7590E-01 -.7577E+00 0.8987E-01 0.5011E+00 -.8737E+01
mix (3): G =   0.010000, sum(alpha) = -.8979E+01, alpha =  -.7590E-01 -.7577E+00 0.8987E-01 0.5011E+00 -.8737E+01
mix (1): G =   0.010000, sum(alpha) = -.8979E+01, alpha =  -.7590E-01 -.7577E+00 0.8987E-01 0.5011E+00 -.8737E+01
mix (0): G =   0.010000, sum(alpha) = -.8979E+01, alpha =  -.7590E-01 -.7577E+00 0.8987E-01 0.5011E+00 -.8737E+01
mix (6): G =   0.010000, sum(alpha) = -.8979E+01, alpha =  -.7590E-01 -.7577E+00 0.8987E-01 0.5011E+00 -.8737E+01
mix (7): G =   0.010000, sum(alpha) = -.8979E+01, alpha =  -.7590E-01 -.7577E+00 0.8987E-01 0.5011E+00 -.8737E+01
mix (5): G =   0.010000, sum(alpha) = -.8979E+01, alpha =  -.7590E-01 -.7577E+00 0.8987E-01 0.5011E+00 -.8737E+01
   scf:   39    -2317.917918    -2323.989218    -2324.117364  0.109547 -3.627283  9.159921
mix (1): Pulay, GR
mix (1): Direct mixing, alpha = 0.1000E-01
mix (4): Pulay, GR
mix (4): Direct mixing, alpha = 0.1000E-01
mix (6): Pulay, GR
mix (2): Pulay, GR
mix (2): Direct mixing, alpha = 0.1000E-01
mix (7): Pulay, GR
mix (7): Direct mixing, alpha = 0.1000E-01
mix (3): Pulay, GR
mix (3): Direct mixing, alpha = 0.1000E-01
     spin moment: S , {S} =    0.49170   0.49170   0.00000  -0.00003
mix (5): Pulay, GR
mix (5): Direct mixing, alpha = 0.1000E-01
mix (6): Direct mixing, alpha = 0.1000E-01
mix (0): Pulay, GR
mix (0): Direct mixing, alpha = 0.1000E-01
   scf:   40    -2327.935860    -2326.442345    -2326.554575  0.062282 -3.649117  3.925029
mix (3): Pulay, GR
mix (3): n_hist = 6 / 6
mix (1): Pulay, GR
mix (1): n_hist = 6 / 6
mix (4): Pulay, GR
mix (4): n_hist = 6 / 6
mix (5): Pulay, GR
mix (5): n_hist = 6 / 6
mix (2): Pulay, GR
mix (2): n_hist = 6 / 6
mix (7): Pulay, GR
mix (7): n_hist = 6 / 6
     spin moment: S , {S} =    0.46114   0.46114   0.00000  -0.00002
mix (6): Pulay, GR
mix (6): n_hist = 6 / 6
mix (0): Pulay, GR
mix (0): n_hist = 6 / 6
mix (6): G =   0.010000, sum(alpha) = 0.5557E+01, alpha =  0.1274E+00 -.2134E+00 0.2170E+00 0.2028E+01 0.3398E+01
mix (7): G =   0.010000, sum(alpha) = 0.5557E+01, alpha =  0.1274E+00 -.2134E+00 0.2170E+00 0.2028E+01 0.3398E+01
mix (3): G =   0.010000, sum(alpha) = 0.5557E+01, alpha =  0.1274E+00 -.2134E+00 0.2170E+00 0.2028E+01 0.3398E+01
mix (1): G =   0.010000, sum(alpha) = 0.5557E+01, alpha =  0.1274E+00 -.2134E+00 0.2170E+00 0.2028E+01 0.3398E+01
mix (4): G =   0.010000, sum(alpha) = 0.5557E+01, alpha =  0.1274E+00 -.2134E+00 0.2170E+00 0.2028E+01 0.3398E+01
mix (5): G =   0.010000, sum(alpha) = 0.5557E+01, alpha =  0.1274E+00 -.2134E+00 0.2170E+00 0.2028E+01 0.3398E+01
mix (2): G =   0.010000, sum(alpha) = 0.5557E+01, alpha =  0.1274E+00 -.2134E+00 0.2170E+00 0.2028E+01 0.3398E+01
mix (0): G =   0.010000, sum(alpha) = 0.5557E+01, alpha =  0.1274E+00 -.2134E+00 0.2170E+00 0.2028E+01 0.3398E+01
   scf:   41    -2326.878921    -2326.993912    -2327.085798  0.054905 -3.655829  0.447760
mix (2): Pulay, GR
mix (2): Direct mixing, alpha = 0.1000E-01
mix (6): Pulay, GR
mix (7): Pulay, GR
mix (7): Direct mixing, alpha = 0.1000E-01
mix (3): Pulay, GR
mix (3): Direct mixing, alpha = 0.1000E-01
mix (1): Pulay, GR
mix (1): Direct mixing, alpha = 0.1000E-01
mix (4): Pulay, GR
mix (4): Direct mixing, alpha = 0.1000E-01
mix (5): Pulay, GR
mix (5): Direct mixing, alpha = 0.1000E-01
     spin moment: S , {S} =    0.35206   0.35206   0.00000  -0.00001
mix (6): Direct mixing, alpha = 0.1000E-01
mix (0): Pulay, GR
mix (0): Direct mixing, alpha = 0.1000E-01
   scf:   42    -2327.001544    -2326.998601    -2327.091498  0.002653 -3.654818  0.222978
mix (2): Pulay, GR
mix (2): n_hist = 6 / 6
mix (3): Pulay, GR
mix (3): n_hist = 6 / 6
mix (1): Pulay, GR
mix (1): n_hist = 6 / 6
mix (4): Pulay, GR
mix (4): n_hist = 6 / 6
     spin moment: S , {S} =    0.35487   0.35487   0.00000  -0.00000
mix (5): Pulay, GR
mix (5): n_hist = 6 / 6
mix (6): Pulay, GR
mix (6): n_hist = 6 / 6
mix (7): Pulay, GR
mix (7): n_hist = 6 / 6
mix (0): Pulay, GR
mix (0): n_hist = 6 / 6
mix (7): G =   0.010000, sum(alpha) = 0.9654E+02, alpha =  0.3949E-01 0.3742E+00 -.9482E+00 0.1177E+01 0.9590E+02
mix (4): G =   0.010000, sum(alpha) = 0.9654E+02, alpha =  0.3949E-01 0.3742E+00 -.9482E+00 0.1177E+01 0.9590E+02
mix (5): G =   0.010000, sum(alpha) = 0.9654E+02, alpha =  0.3949E-01 0.3742E+00 -.9482E+00 0.1177E+01 0.9590E+02
mix (6): G =   0.010000, sum(alpha) = 0.9654E+02, alpha =  0.3949E-01 0.3742E+00 -.9482E+00 0.1177E+01 0.9590E+02
mix (2): G =   0.010000, sum(alpha) = 0.9654E+02, alpha =  0.3949E-01 0.3742E+00 -.9482E+00 0.1177E+01 0.9590E+02
mix (3): G =   0.010000, sum(alpha) = 0.9654E+02, alpha =  0.3949E-01 0.3742E+00 -.9482E+00 0.1177E+01 0.9590E+02
mix (1): G =   0.010000, sum(alpha) = 0.9654E+02, alpha =  0.3949E-01 0.3742E+00 -.9482E+00 0.1177E+01 0.9590E+02
mix (0): G =   0.010000, sum(alpha) = 0.9654E+02, alpha =  0.3949E-01 0.3742E+00 -.9482E+00 0.1177E+01 0.9590E+02
   scf:   43    -2320.143107    -2324.735384    -2324.860937  0.099203 -3.637343  7.911531
mix (1): Pulay, GR
mix (1): Direct mixing, alpha = 0.1000E-01
mix (7): Pulay, GR
mix (4): Pulay, GR
mix (4): Direct mixing, alpha = 0.1000E-01
mix (5): Pulay, GR
mix (5): Direct mixing, alpha = 0.1000E-01
mix (6): Pulay, GR
mix (6): Direct mixing, alpha = 0.1000E-01
mix (2): Pulay, GR
mix (2): Direct mixing, alpha = 0.1000E-01
mix (3): Pulay, GR
mix (3): Direct mixing, alpha = 0.1000E-01
     spin moment: S , {S} =    0.46679   0.46679   0.00000   0.00039
mix (7): Direct mixing, alpha = 0.1000E-01
mix (0): Pulay, GR
mix (0): Direct mixing, alpha = 0.1000E-01
   scf:   44    -2327.691588    -2326.563718    -2326.675025  0.052918 -3.656008  3.437035
mix (3): Pulay, GR
mix (1): Pulay, GR
mix (1): n_hist = 6 / 6
mix (4): Pulay, GR
mix (4): n_hist = 6 / 6
mix (2): Pulay, GR
mix (2): n_hist = 6 / 6
     spin moment: S , {S} =    0.43847   0.43847   0.00000   0.00019
mix (3): n_hist = 6 / 6
mix (7): Pulay, GR
mix (5): Pulay, GR
mix (6): Pulay, GR
mix (6): n_hist = 6 / 6
mix (7): n_hist = 6 / 6
mix (5): n_hist = 6 / 6
mix (0): Pulay, GR
mix (0): n_hist = 6 / 6
mix (2): G =   0.010000, sum(alpha) = -.3272E+01, alpha =  0.9825E-01 -.5613E+00 -.9768E+00 -.1187E+01 -.6459E+00
mix (3): G =   0.010000, sum(alpha) = -.3272E+01, alpha =  0.9825E-01 -.5613E+00 -.9768E+00 -.1187E+01 -.6459E+00
mix (1): G =   0.010000, sum(alpha) = -.3272E+01, alpha =  0.9825E-01 -.5613E+00 -.9768E+00 -.1187E+01 -.6459E+00
mix (6): G =   0.010000, sum(alpha) = -.3272E+01, alpha =  0.9825E-01 -.5613E+00 -.9768E+00 -.1187E+01 -.6459E+00
mix (7): G =   0.010000, sum(alpha) = -.3272E+01, alpha =  0.9825E-01 -.5613E+00 -.9768E+00 -.1187E+01 -.6459E+00
mix (4): G =   0.010000, sum(alpha) = -.3272E+01, alpha =  0.9825E-01 -.5613E+00 -.9768E+00 -.1187E+01 -.6459E+00
mix (0): G =   0.010000, sum(alpha) = -.3272E+01, alpha =  0.9825E-01 -.5613E+00 -.9768E+00 -.1187E+01 -.6459E+00
mix (5): G =   0.010000, sum(alpha) = -.3272E+01, alpha =  0.9825E-01 -.5613E+00 -.9768E+00 -.1187E+01 -.6459E+00
   scf:   45    -2326.862143    -2326.993055    -2327.087556  0.047214 -3.668653  0.558195
mix (4): Pulay, GR
mix (4): Direct mixing, alpha = 0.1000E-01
mix (2): Pulay, GR
mix (2): Direct mixing, alpha = 0.1000E-01
mix (3): Pulay, GR
mix (3): Direct mixing, alpha = 0.1000E-01
mix (1): Pulay, GR
mix (1): Direct mixing, alpha = 0.1000E-01
mix (6): Pulay, GR
mix (6): Direct mixing, alpha = 0.1000E-01
mix (7): Pulay, GR
mix (7): Direct mixing, alpha = 0.1000E-01
     spin moment: S , {S} =    0.42647   0.42647   0.00000  -0.00016
mix (5): Pulay, GR
mix (5): Direct mixing, alpha = 0.1000E-01
mix (0): Pulay, GR
mix (0): Direct mixing, alpha = 0.1000E-01
   scf:   46    -2327.004618    -2327.000104    -2327.095803  0.003160 -3.667223  0.287004
mix (4): Pulay, GR
mix (4): n_hist = 6 / 6
mix (2): Pulay, GR
mix (2): n_hist = 6 / 6
mix (3): Pulay, GR
mix (3): n_hist = 6 / 6
mix (1): Pulay, GR
mix (1): n_hist = 6 / 6
mix (6): Pulay, GR
mix (6): n_hist = 6 / 6
     spin moment: S , {S} =    0.43069   0.43069   0.00000  -0.00011
mix (7): Pulay, GR
mix (7): n_hist = 6 / 6
mix (5): Pulay, GR
mix (5): n_hist = 6 / 6
mix (0): Pulay, GR
mix (0): n_hist = 6 / 6
mix (4): G =   0.010000, sum(alpha) = -.3824E+02, alpha =  -.3624E+01 -.3655E+01 -.5633E+01 -.6154E+01 -.1918E+02
mix (2): G =   0.010000, sum(alpha) = -.3824E+02, alpha =  -.3624E+01 -.3655E+01 -.5633E+01 -.6154E+01 -.1918E+02
mix (3): G =   0.010000, sum(alpha) = -.3824E+02, alpha =  -.3624E+01 -.3655E+01 -.5633E+01 -.6154E+01 -.1918E+02
mix (1): G =   0.010000, sum(alpha) = -.3824E+02, alpha =  -.3624E+01 -.3655E+01 -.5633E+01 -.6154E+01 -.1918E+02
mix (0): G =   0.010000, sum(alpha) = -.3824E+02, alpha =  -.3624E+01 -.3655E+01 -.5633E+01 -.6154E+01 -.1918E+02
mix (5): G =   0.010000, sum(alpha) = -.3824E+02, alpha =  -.3624E+01 -.3655E+01 -.5633E+01 -.6154E+01 -.1918E+02
mix (7): G =   0.010000, sum(alpha) = -.3824E+02, alpha =  -.3624E+01 -.3655E+01 -.5633E+01 -.6154E+01 -.1918E+02
mix (6): G =   0.010000, sum(alpha) = -.3824E+02, alpha =  -.3624E+01 -.3655E+01 -.5633E+01 -.6154E+01 -.1918E+02
   scf:   47    -2326.989865    -2326.994955    -2327.089391  0.009501 -3.640498  0.398212
mix (1): Pulay, GR
mix (4): Pulay, GR
mix (2): Pulay, GR
mix (2): Direct mixing, alpha = 0.1000E-01
mix (3): Pulay, GR
mix (3): Direct mixing, alpha = 0.1000E-01
     spin moment: S , {S} =    0.36068   0.36068   0.00000  -0.00005
mix (6): Pulay, GR
mix (5): Pulay, GR
mix (7): Pulay, GR
mix (1): Direct mixing, alpha = 0.1000E-01
mix (4): Direct mixing, alpha = 0.1000E-01
mix (6): Direct mixing, alpha = 0.1000E-01
mix (5): Direct mixing, alpha = 0.1000E-01
mix (7): Direct mixing, alpha = 0.1000E-01
mix (0): Pulay, GR
mix (0): Direct mixing, alpha = 0.1000E-01
   scf:   48    -2327.001485    -2326.998990    -2327.094343  0.002442 -3.639606  0.187136
mix (4): Pulay, GR
mix (4): n_hist = 6 / 6
mix (6): Pulay, GR
mix (6): n_hist = 6 / 6
mix (3): Pulay, GR
mix (3): n_hist = 6 / 6
mix (5): Pulay, GR
mix (5): n_hist = 6 / 6
mix (1): Pulay, GR
mix (1): n_hist = 6 / 6
mix (2): Pulay, GR
mix (2): n_hist = 6 / 6
     spin moment: S , {S} =    0.36375   0.36375   0.00000  -0.00003
mix (7): Pulay, GR
mix (7): n_hist = 6 / 6
mix (0): Pulay, GR
mix (0): n_hist = 6 / 6
mix (7): G =   0.010000, sum(alpha) = -.3719E+00, alpha =  0.9108E-01 0.3227E+00 0.1704E+00 -.1201E+00 -.8360E+00
mix (2): G =   0.010000, sum(alpha) = -.3719E+00, alpha =  0.9108E-01 0.3227E+00 0.1704E+00 -.1201E+00 -.8360E+00
mix (4): G =   0.010000, sum(alpha) = -.3719E+00, alpha =  0.9108E-01 0.3227E+00 0.1704E+00 -.1201E+00 -.8360E+00
mix (6): G =   0.010000, sum(alpha) = -.3719E+00, alpha =  0.9108E-01 0.3227E+00 0.1704E+00 -.1201E+00 -.8360E+00
mix (3): G =   0.010000, sum(alpha) = -.3719E+00, alpha =  0.9108E-01 0.3227E+00 0.1704E+00 -.1201E+00 -.8360E+00
mix (5): G =   0.010000, sum(alpha) = -.3719E+00, alpha =  0.9108E-01 0.3227E+00 0.1704E+00 -.1201E+00 -.8360E+00
mix (1): G =   0.010000, sum(alpha) = -.3719E+00, alpha =  0.9108E-01 0.3227E+00 0.1704E+00 -.1201E+00 -.8360E+00
mix (0): G =   0.010000, sum(alpha) = -.3719E+00, alpha =  0.9108E-01 0.3227E+00 0.1704E+00 -.1201E+00 -.8360E+00
mix (0): switching mixer --> pulay
   scf:   49    -2326.998503    -2326.999986    -2327.097375  0.005295 -3.645318  0.075763
     spin moment: S , {S} =    0.38890   0.38890   0.00000  -0.00003
mix (1): Pulay
mix (1): n_hist = 6 / 6
mix (2): Pulay
mix (2): n_hist = 6 / 6
mix (4): Pulay
mix (4): n_hist = 6 / 6
mix (6): Pulay
mix (5): Pulay
mix (0): Pulay
mix (0): n_hist = 6 / 6
mix (7): Pulay
mix (7): n_hist = 6 / 6
mix (6): n_hist = 6 / 6
mix (5): n_hist = 6 / 6
mix (3): Pulay
mix (3): n_hist = 6 / 6
mix (6): G =   0.010000, sum(alpha) = 0.1817E+00, alpha =  -.3723E+00 0.7094E+00 -.3103E+00 0.3193E+00 -.1643E+00
mix (0): G =   0.010000, sum(alpha) = 0.1817E+00, alpha =  -.3723E+00 0.7094E+00 -.3103E+00 0.3193E+00 -.1643E+00
mix (1): G =   0.010000, sum(alpha) = 0.1817E+00, alpha =  -.3723E+00 0.7094E+00 -.3103E+00 0.3193E+00 -.1643E+00
mix (2): G =   0.010000, sum(alpha) = 0.1817E+00, alpha =  -.3723E+00 0.7094E+00 -.3103E+00 0.3193E+00 -.1643E+00
mix (4): G =   0.010000, sum(alpha) = 0.1817E+00, alpha =  -.3723E+00 0.7094E+00 -.3103E+00 0.3193E+00 -.1643E+00
mix (5): G =   0.010000, sum(alpha) = 0.1817E+00, alpha =  -.3723E+00 0.7094E+00 -.3103E+00 0.3193E+00 -.1643E+00
mix (7): G =   0.010000, sum(alpha) = 0.1817E+00, alpha =  -.3723E+00 0.7094E+00 -.3103E+00 0.3193E+00 -.1643E+00
mix (3): G =   0.010000, sum(alpha) = 0.1817E+00, alpha =  -.3723E+00 0.7094E+00 -.3103E+00 0.3193E+00 -.1643E+00
   scf:   50    -2326.998556    -2327.000201    -2327.097380  0.003190 -3.662459  0.175372
     spin moment: S , {S} =    0.40269   0.40269   0.00000  -0.00002
mix (6): Pulay
mix (1): Pulay
mix (1): n_hist = 6 / 6
mix (2): Pulay
mix (2): n_hist = 6 / 6
mix (4): Pulay
mix (4): n_hist = 6 / 6
mix (5): Pulay
mix (5): n_hist = 6 / 6
mix (7): Pulay
mix (7): n_hist = 6 / 6
mix (0): Pulay
mix (0): n_hist = 6 / 6
mix (6): n_hist = 6 / 6
mix (3): Pulay
mix (3): n_hist = 6 / 6
mix (5): G =   0.010000, sum(alpha) = -.1338E+01, alpha =  0.2205E+01 -.4637E+00 0.1724E+01 -.1079E+01 -.3725E+01
mix (7): G =   0.010000, sum(alpha) = -.1338E+01, alpha =  0.2205E+01 -.4637E+00 0.1724E+01 -.1079E+01 -.3725E+01
mix (6): G =   0.010000, sum(alpha) = -.1338E+01, alpha =  0.2205E+01 -.4637E+00 0.1724E+01 -.1079E+01 -.3725E+01
mix (0): G =   0.010000, sum(alpha) = -.1338E+01, alpha =  0.2205E+01 -.4637E+00 0.1724E+01 -.1079E+01 -.3725E+01
mix (1): G =   0.010000, sum(alpha) = -.1338E+01, alpha =  0.2205E+01 -.4637E+00 0.1724E+01 -.1079E+01 -.3725E+01
mix (2): G =   0.010000, sum(alpha) = -.1338E+01, alpha =  0.2205E+01 -.4637E+00 0.1724E+01 -.1079E+01 -.3725E+01
mix (4): G =   0.010000, sum(alpha) = -.1338E+01, alpha =  0.2205E+01 -.4637E+00 0.1724E+01 -.1079E+01 -.3725E+01
mix (3): G =   0.010000, sum(alpha) = -.1338E+01, alpha =  0.2205E+01 -.4637E+00 0.1724E+01 -.1079E+01 -.3725E+01
   scf:   51    -2326.986442    -2326.995023    -2327.091772  0.006987 -3.661883  0.508585
mix (4): Pulay
mix (4): n_hist = 6 / 6
mix (6): Pulay
mix (3): Pulay
mix (3): n_hist = 6 / 6
mix (1): Pulay
mix (1): n_hist = 6 / 6
mix (2): Pulay
mix (2): n_hist = 6 / 6
     spin moment: S , {S} =    0.45515   0.45515   0.00000  -0.00003
mix (5): Pulay
mix (5): n_hist = 6 / 6
mix (7): Pulay
mix (7): n_hist = 6 / 6
mix (6): n_hist = 6 / 6
mix (0): Pulay
mix (0): n_hist = 6 / 6
mix (2): G =   0.010000, sum(alpha) = -.1735E+01, alpha =  -.1368E+00 0.9166E-01 -.7869E-01 -.4150E+00 -.1196E+01
mix (4): G =   0.010000, sum(alpha) = -.1735E+01, alpha =  -.1368E+00 0.9166E-01 -.7869E-01 -.4150E+00 -.1196E+01
mix (7): G =   0.010000, sum(alpha) = -.1735E+01, alpha =  -.1368E+00 0.9166E-01 -.7869E-01 -.4150E+00 -.1196E+01
mix (3): G =   0.010000, sum(alpha) = -.1735E+01, alpha =  -.1368E+00 0.9166E-01 -.7869E-01 -.4150E+00 -.1196E+01
[...]
   scf:  103    -2326.995152    -2326.995154    -2327.088892  0.000181 -3.681494  0.002147
     spin moment: S , {S} =    0.03064   0.03064   0.00000  -0.00001
mix (7): Pulay
mix (1): Pulay
mix (1): n_hist = 6 / 6
mix (2): Pulay
mix (2): n_hist = 6 / 6
mix (5): Pulay
mix (5): n_hist = 6 / 6
mix (6): Pulay
mix (6): n_hist = 6 / 6
mix (3): Pulay
mix (3): n_hist = 6 / 6
mix (0): Pulay
mix (0): n_hist = 6 / 6
mix (7): n_hist = 6 / 6
mix (4): Pulay
mix (4): n_hist = 6 / 6
mix (3): G =   0.010000, sum(alpha) = 0.4621E+04, alpha =  0.1466E+04 -.5867E+03 0.4035E+04 -.3257E+03 0.3170E+02
mix (0): G =   0.010000, sum(alpha) = 0.4621E+04, alpha =  0.1466E+04 -.5867E+03 0.4035E+04 -.3257E+03 0.3170E+02
mix (1): G =   0.010000, sum(alpha) = 0.4621E+04, alpha =  0.1466E+04 -.5867E+03 0.4035E+04 -.3257E+03 0.3170E+02
mix (2): G =   0.010000, sum(alpha) = 0.4621E+04, alpha =  0.1466E+04 -.5867E+03 0.4035E+04 -.3257E+03 0.3170E+02
mix (6): G =   0.010000, sum(alpha) = 0.4621E+04, alpha =  0.1466E+04 -.5867E+03 0.4035E+04 -.3257E+03 0.3170E+02
mix (4): G =   0.010000, sum(alpha) = 0.4621E+04, alpha =  0.1466E+04 -.5867E+03 0.4035E+04 -.3257E+03 0.3170E+02
mix (7): G =   0.010000, sum(alpha) = 0.4621E+04, alpha =  0.1466E+04 -.5867E+03 0.4035E+04 -.3257E+03 0.3170E+02
mix (5): G =   0.010000, sum(alpha) = 0.4621E+04, alpha =  0.1466E+04 -.5867E+03 0.4035E+04 -.3257E+03 0.3170E+02
   scf:  104    -2326.995177    -2326.995164    -2327.088898  0.000483 -3.681423  0.001899
mix (3): Pulay
mix (3): n_hist = 6 / 6
mix (4): Pulay
mix (4): n_hist = 6 / 6
mix (5): Pulay
mix (5): n_hist = 6 / 6
mix (1): Pulay
mix (1): n_hist = 6 / 6
mix (7): Pulay
mix (7): n_hist = 6 / 6
mix (2): Pulay
mix (2): n_hist = 6 / 6
     spin moment: S , {S} =    0.03049   0.03049   0.00000  -0.00001
mix (6): Pulay
mix (6): n_hist = 6 / 6
mix (0): Pulay
mix (0): n_hist = 6 / 6
mix (2): G =   0.010000, sum(alpha) = 0.4160E+00, alpha =  -.9766E-01 0.5267E+00 -.1770E-01 0.6422E-02 -.1772E-02
mix (3): G =   0.010000, sum(alpha) = 0.4160E+00, alpha =  -.9766E-01 0.5267E+00 -.1770E-01 0.6422E-02 -.1772E-02
mix (4): G =   0.010000, sum(alpha) = 0.4160E+00, alpha =  -.9766E-01 0.5267E+00 -.1770E-01 0.6422E-02 -.1772E-02
mix (1): G =   0.010000, sum(alpha) = 0.4160E+00, alpha =  -.9766E-01 0.5267E+00 -.1770E-01 0.6422E-02 -.1772E-02
mix (7): G =   0.010000, sum(alpha) = 0.4160E+00, alpha =  -.9766E-01 0.5267E+00 -.1770E-01 0.6422E-02 -.1772E-02
mix (0): G =   0.010000, sum(alpha) = 0.4160E+00, alpha =  -.9766E-01 0.5267E+00 -.1770E-01 0.6422E-02 -.1772E-02
mix (6): G =   0.010000, sum(alpha) = 0.4160E+00, alpha =  -.9766E-01 0.5267E+00 -.1770E-01 0.6422E-02 -.1772E-02
mix (5): G =   0.010000, sum(alpha) = 0.4160E+00, alpha =  -.9766E-01 0.5267E+00 -.1770E-01 0.6422E-02 -.1772E-02
   scf:  105    -2326.995162    -2326.995163    -2327.088898  0.000004 -3.681416  0.001895
mix (2): Pulay
mix (2): n_hist = 6 / 6
mix (3): Pulay
mix (3): n_hist = 6 / 6
mix (6): Pulay
mix (6): n_hist = 6 / 6
mix (4): Pulay
mix (4): n_hist = 6 / 6
mix (1): Pulay
mix (1): n_hist = 6 / 6
     spin moment: S , {S} =    0.03042   0.03042   0.00000  -0.00001
mix (5): Pulay
mix (5): n_hist = 6 / 6
mix (7): Pulay
mix (7): n_hist = 6 / 6
mix (0): Pulay
mix (0): n_hist = 6 / 6
mix (1): G =   0.010000, sum(alpha) = 0.3830E+01, alpha =  -.5432E+01 0.7748E+00 -.3420E+00 0.1172E+00 0.8711E+01
mix (2): G =   0.010000, sum(alpha) = 0.3830E+01, alpha =  -.5432E+01 0.7748E+00 -.3420E+00 0.1172E+00 0.8711E+01
mix (3): G =   0.010000, sum(alpha) = 0.3830E+01, alpha =  -.5432E+01 0.7748E+00 -.3420E+00 0.1172E+00 0.8711E+01
mix (6): G =   0.010000, sum(alpha) = 0.3830E+01, alpha =  -.5432E+01 0.7748E+00 -.3420E+00 0.1172E+00 0.8711E+01
mix (4): G =   0.010000, sum(alpha) = 0.3830E+01, alpha =  -.5432E+01 0.7748E+00 -.3420E+00 0.1172E+00 0.8711E+01
mix (0): G =   0.010000, sum(alpha) = 0.3830E+01, alpha =  -.5432E+01 0.7748E+00 -.3420E+00 0.1172E+00 0.8711E+01
mix (7): G =   0.010000, sum(alpha) = 0.3830E+01, alpha =  -.5432E+01 0.7748E+00 -.3420E+00 0.1172E+00 0.8711E+01
mix (5): G =   0.010000, sum(alpha) = 0.3830E+01, alpha =  -.5432E+01 0.7748E+00 -.3420E+00 0.1172E+00 0.8711E+01
   scf:  106    -2326.995174    -2326.995168    -2327.088899  0.000033 -3.681417  0.001861
mix (4): Pulay
mix (4): n_hist = 6 / 6
mix (1): Pulay
mix (1): n_hist = 6 / 6
mix (2): Pulay
mix (2): n_hist = 6 / 6
mix (3): Pulay
mix (3): n_hist = 6 / 6
mix (6): Pulay
mix (6): n_hist = 6 / 6
     spin moment: S , {S} =    0.03000   0.03000   0.00000  -0.00001
mix (5): Pulay
mix (5): n_hist = 6 / 6
mix (7): Pulay
mix (7): n_hist = 6 / 6
mix (0): Pulay
mix (0): n_hist = 6 / 6
mix (6): G =   0.010000, sum(alpha) = 0.5109E+00, alpha =  0.1448E+00 -.7615E-01 0.2019E-01 0.1783E-01 0.4042E+00
mix (4): G =   0.010000, sum(alpha) = 0.5109E+00, alpha =  0.1448E+00 -.7615E-01 0.2019E-01 0.1783E-01 0.4042E+00
mix (1): G =   0.010000, sum(alpha) = 0.5109E+00, alpha =  0.1448E+00 -.7615E-01 0.2019E-01 0.1783E-01 0.4042E+00
mix (2): G =   0.010000, sum(alpha) = 0.5109E+00, alpha =  0.1448E+00 -.7615E-01 0.2019E-01 0.1783E-01 0.4042E+00
mix (3): G =   0.010000, sum(alpha) = 0.5109E+00, alpha =  0.1448E+00 -.7615E-01 0.2019E-01 0.1783E-01 0.4042E+00
mix (0): G =   0.010000, sum(alpha) = 0.5109E+00, alpha =  0.1448E+00 -.7615E-01 0.2019E-01 0.1783E-01 0.4042E+00
mix (7): G =   0.010000, sum(alpha) = 0.5109E+00, alpha =  0.1448E+00 -.7615E-01 0.2019E-01 0.1783E-01 0.4042E+00
mix (5): G =   0.010000, sum(alpha) = 0.5109E+00, alpha =  0.1448E+00 -.7615E-01 0.2019E-01 0.1783E-01 0.4042E+00
   scf:  107    -2326.995172    -2326.995170    -2327.088900  0.000024 -3.681430  0.001835
mix (3): Pulay
mix (3): n_hist = 6 / 6
mix (6): Pulay
mix (6): n_hist = 6 / 6
mix (4): Pulay
mix (4): n_hist = 6 / 6
mix (1): Pulay
mix (1): n_hist = 6 / 6
mix (2): Pulay
mix (2): n_hist = 6 / 6
     spin moment: S , {S} =    0.02962   0.02962   0.00000  -0.00001
mix (5): Pulay
mix (5): n_hist = 6 / 6
mix (7): Pulay
mix (7): n_hist = 6 / 6
mix (0): Pulay
mix (0): n_hist = 6 / 6
mix (7): G =   0.010000, sum(alpha) = 0.3704E+02, alpha =  -.2649E-01 0.2281E+00 0.2247E+01 -.1359E+02 0.4818E+02
mix (5): G =   0.010000, sum(alpha) = 0.3704E+02, alpha =  -.2649E-01 0.2281E+00 0.2247E+01 -.1359E+02 0.4818E+02
mix (2): G =   0.010000, sum(alpha) = 0.3704E+02, alpha =  -.2649E-01 0.2281E+00 0.2247E+01 -.1359E+02 0.4818E+02
mix (3): G =   0.010000, sum(alpha) = 0.3704E+02, alpha =  -.2649E-01 0.2281E+00 0.2247E+01 -.1359E+02 0.4818E+02
mix (6): G =   0.010000, sum(alpha) = 0.3704E+02, alpha =  -.2649E-01 0.2281E+00 0.2247E+01 -.1359E+02 0.4818E+02
mix (4): G =   0.010000, sum(alpha) = 0.3704E+02, alpha =  -.2649E-01 0.2281E+00 0.2247E+01 -.1359E+02 0.4818E+02
mix (1): G =   0.010000, sum(alpha) = 0.3704E+02, alpha =  -.2649E-01 0.2281E+00 0.2247E+01 -.1359E+02 0.4818E+02
mix (0): G =   0.010000, sum(alpha) = 0.3704E+02, alpha =  -.2649E-01 0.2281E+00 0.2247E+01 -.1359E+02 0.4818E+02
   scf:  108    -2326.995223    -2326.995188    -2327.088913  0.000769 -3.681998  0.001399
     spin moment: S , {S} =    0.01649   0.01649   0.00000  -0.00001
mix (1): Pulay
mix (1): n_hist = 6 / 6
mix (7): Pulay
mix (5): Pulay
mix (2): Pulay
mix (2): n_hist = 6 / 6
mix (3): Pulay
mix (3): n_hist = 6 / 6
mix (6): Pulay
mix (6): n_hist = 6 / 6
mix (0): Pulay
mix (0): n_hist = 6 / 6
mix (7): n_hist = 6 / 6
mix (5): n_hist = 6 / 6
mix (4): Pulay
mix (4): n_hist = 6 / 6
mix (1): G =   0.010000, sum(alpha) = -.8047E+03, alpha =  -.5284E+01 -.2933E+02 0.3110E+03 -.1104E+04 0.2316E+02
mix (0): G =   0.010000, sum(alpha) = -.8047E+03, alpha =  -.5284E+01 -.2933E+02 0.3110E+03 -.1104E+04 0.2316E+02
mix (2): G =   0.010000, sum(alpha) = -.8047E+03, alpha =  -.5284E+01 -.2933E+02 0.3110E+03 -.1104E+04 0.2316E+02
mix (3): G =   0.010000, sum(alpha) = -.8047E+03, alpha =  -.5284E+01 -.2933E+02 0.3110E+03 -.1104E+04 0.2316E+02
mix (4): G =   0.010000, sum(alpha) = -.8047E+03, alpha =  -.5284E+01 -.2933E+02 0.3110E+03 -.1104E+04 0.2316E+02
mix (6): G =   0.010000, sum(alpha) = -.8047E+03, alpha =  -.5284E+01 -.2933E+02 0.3110E+03 -.1104E+04 0.2316E+02
mix (7): G =   0.010000, sum(alpha) = -.8047E+03, alpha =  -.5284E+01 -.2933E+02 0.3110E+03 -.1104E+04 0.2316E+02
mix (5): G =   0.010000, sum(alpha) = -.8047E+03, alpha =  -.5284E+01 -.2933E+02 0.3110E+03 -.1104E+04 0.2316E+02
mix (0): switching mixer --> pulay-GR
   scf:  109    -2326.995168    -2326.995178    -2327.088914  0.000188 -3.682271  0.004302
mix (4): Pulay, GR
mix (4): Direct mixing, alpha = 0.1000E-01
mix (3): Pulay, GR
mix (3): Direct mixing, alpha = 0.1000E-01
mix (1): Pulay, GR
mix (1): Direct mixing, alpha = 0.1000E-01
mix (6): Pulay, GR
mix (6): Direct mixing, alpha = 0.1000E-01
mix (5): Pulay, GR
mix (5): Direct mixing, alpha = 0.1000E-01
mix (2): Pulay, GR
mix (2): Direct mixing, alpha = 0.1000E-01
mix (7): Pulay, GR
mix (7): Direct mixing, alpha = 0.1000E-01
     spin moment: S , {S} =    0.01279   0.01279   0.00000  -0.00002
mix (0): Pulay, GR
mix (0): Direct mixing, alpha = 0.1000E-01
   scf:  110    -2326.995196    -2326.995187    -2327.088915  0.000025 -3.682280  0.002247
mix (4): Pulay, GR
mix (4): n_hist = 6 / 6
mix (3): Pulay, GR
mix (3): n_hist = 6 / 6
mix (1): Pulay, GR
mix (1): n_hist = 6 / 6
mix (6): Pulay, GR
mix (6): n_hist = 6 / 6
mix (5): Pulay, GR
mix (5): n_hist = 6 / 6
mix (2): Pulay, GR
mix (2): n_hist = 6 / 6
     spin moment: S , {S} =    0.01277   0.01277   0.00000  -0.00001
mix (7): Pulay, GR
mix (7): n_hist = 6 / 6
mix (0): Pulay, GR
mix (0): n_hist = 6 / 6
mix (7): G =   0.010000, sum(alpha) = 0.5756E+01, alpha =  -.7945E+00 -.1116E+01 -.7512E-01 0.1208E+00 0.7621E+01
mix (2): G =   0.010000, sum(alpha) = 0.5756E+01, alpha =  -.7945E+00 -.1116E+01 -.7512E-01 0.1208E+00 0.7621E+01
mix (4): G =   0.010000, sum(alpha) = 0.5756E+01, alpha =  -.7945E+00 -.1116E+01 -.7512E-01 0.1208E+00 0.7621E+01
mix (3): G =   0.010000, sum(alpha) = 0.5756E+01, alpha =  -.7945E+00 -.1116E+01 -.7512E-01 0.1208E+00 0.7621E+01
mix (1): G =   0.010000, sum(alpha) = 0.5756E+01, alpha =  -.7945E+00 -.1116E+01 -.7512E-01 0.1208E+00 0.7621E+01
mix (6): G =   0.010000, sum(alpha) = 0.5756E+01, alpha =  -.7945E+00 -.1116E+01 -.7512E-01 0.1208E+00 0.7621E+01
mix (5): G =   0.010000, sum(alpha) = 0.5756E+01, alpha =  -.7945E+00 -.1116E+01 -.7512E-01 0.1208E+00 0.7621E+01
mix (0): G =   0.010000, sum(alpha) = 0.5756E+01, alpha =  -.7945E+00 -.1116E+01 -.7512E-01 0.1208E+00 0.7621E+01
   scf:  111    -2326.995215    -2326.995201    -2327.088915  0.000050 -3.682268  0.001586
     spin moment: S , {S} =    0.01271   0.01271   0.00000  -0.00001
mix (5): Pulay, GR
mix (7): Pulay, GR
mix (2): Pulay, GR
mix (2): Direct mixing, alpha = 0.1000E-01
mix (3): Pulay, GR
mix (3): Direct mixing, alpha = 0.1000E-01
mix (1): Pulay, GR
mix (1): Direct mixing, alpha = 0.1000E-01
mix (6): Pulay, GR
mix (6): Direct mixing, alpha = 0.1000E-01
mix (0): Pulay, GR
mix (0): Direct mixing, alpha = 0.1000E-01
mix (5): Direct mixing, alpha = 0.1000E-01
mix (7): Direct mixing, alpha = 0.1000E-01
mix (4): Pulay, GR
mix (4): Direct mixing, alpha = 0.1000E-01
   scf:  112    -2326.995198    -2326.995199    -2327.088915  0.000006 -3.682261  0.001113
mix (4): Pulay, GR
mix (4): n_hist = 6 / 6
mix (2): Pulay, GR
mix (2): n_hist = 6 / 6
mix (3): Pulay, GR
mix (3): n_hist = 6 / 6
mix (1): Pulay, GR
mix (1): n_hist = 6 / 6
     spin moment: S , {S} =    0.01269   0.01269   0.00000  -0.00001
mix (6): Pulay, GR
mix (5): Pulay, GR
mix (5): n_hist = 6 / 6
mix (7): Pulay, GR
mix (7): n_hist = 6 / 6
mix (6): n_hist = 6 / 6
mix (0): Pulay, GR
mix (0): n_hist = 6 / 6
mix (1): G =   0.010000, sum(alpha) = 0.2871E+02, alpha =  0.4635E+00 -.2624E-01 0.8927E-01 -.8782E-02 0.2819E+02
mix (4): G =   0.010000, sum(alpha) = 0.2871E+02, alpha =  0.4635E+00 -.2624E-01 0.8927E-01 -.8782E-02 0.2819E+02
mix (2): G =   0.010000, sum(alpha) = 0.2871E+02, alpha =  0.4635E+00 -.2624E-01 0.8927E-01 -.8782E-02 0.2819E+02
mix (3): G =   0.010000, sum(alpha) = 0.2871E+02, alpha =  0.4635E+00 -.2624E-01 0.8927E-01 -.8782E-02 0.2819E+02
mix (0): G =   0.010000, sum(alpha) = 0.2871E+02, alpha =  0.4635E+00 -.2624E-01 0.8927E-01 -.8782E-02 0.2819E+02
mix (6): G =   0.010000, sum(alpha) = 0.2871E+02, alpha =  0.4635E+00 -.2624E-01 0.8927E-01 -.8782E-02 0.2819E+02
mix (7): G =   0.010000, sum(alpha) = 0.2871E+02, alpha =  0.4635E+00 -.2624E-01 0.8927E-01 -.8782E-02 0.2819E+02
mix (5): G =   0.010000, sum(alpha) = 0.2871E+02, alpha =  0.4635E+00 -.2624E-01 0.8927E-01 -.8782E-02 0.2819E+02
   scf:  113    -2326.995169    -2326.995184    -2327.088916  0.000065 -3.682290  0.000786
     spin moment: S , {S} =    0.01193   0.01193   0.00000  -0.00001

SCF Convergence by DM+H criterion
max |DM_out - DM_in|         :     0.0000649403
max |H_out - H_in|      (eV) :     0.0007864501
SCF cycle converged after 113 iterations
mix (3): resetting history of all mixers
mix (1): resetting history of all mixers
mix (2): resetting history of all mixers
mix (4): resetting history of all mixers
mix (5): resetting history of all mixers
mix (6): resetting history of all mixers
mix (7): resetting history of all mixers
mix (0): resetting history of all mixers

Using DM_out to compute the final energy and forces
No. of atoms with KB's overlaping orbs in proc 0. Max # of overlaps:       3      45

siesta: E_KS(eV) =            -2326.9952

siesta: E_KS - E_eggbox =     -2326.9952
     spin moment: S , {S} =    0.01193   0.01193   0.00000  -0.00001

siesta: Atomic forces (eV/Ang):
----------------------------------------
   Tot   -0.000000    0.000000    0.000001
----------------------------------------
   Max    0.753271
   Res    0.355089    sqrt( Sum f_i^2 / 3N )
----------------------------------------
   Max    0.753271    constrained

Stress tensor Voigt[x,y,z,yz,xz,xy] (kbar):        6.69        6.69        8.64        0.00        0.00       -0.00
(Free)E + p*V (eV/cell)    -2329.0431
Target enthalpy (eV/cell)    -2327.0889

mulliken: Atomic and Orbital Populations:

Species: fe_nc               

Atom      Orb        Charge      Spin       Svec
----------------------------------------------------------------
    1  1 4s         1.33999   0.02815     -0.000   0.000  -0.028
    1  2 4s         0.11290   0.06417      0.000   0.000   0.064
    1  3 3dxy       1.19086   0.67783      0.002   0.000   0.678
    1  4 3dyz       1.26214   0.46516      0.001   0.000   0.465
    1  5 3dz2       1.29047   0.45449      0.001   0.000   0.454
    1  6 3dxz       1.26214   0.46516      0.001   0.000   0.465
    1  7 3dx2-y2    1.19050   0.67830      0.002   0.000   0.678
    1  8 3dxy       0.05204   0.07491      0.000   0.000   0.075
    1  9 3dyz       0.03399   0.06226      0.000   0.000   0.062
    1 10 3dz2       0.07132   0.04749      0.000   0.000   0.047
    1 11 3dxz       0.03399   0.06226      0.000   0.000   0.062
    1 12 3dx2-y2    0.05197   0.07487      0.000   0.000   0.075
    1 13 4Ppy       0.02752   0.00565      0.000   0.000  -0.006
    1 14 4Ppz       0.00455   0.00171     -0.000   0.000   0.002
    1 15 4Ppx       0.02752   0.00565      0.000   0.000  -0.006
    1     Total     7.95190   3.08914      0.007   0.000   3.089

    2  1 4s         0.86578   0.00005     -0.000   0.000   0.000
    2  2 4s         0.17393   0.00002     -0.000   0.000  -0.000
    2  3 3dxy       1.53535   0.00007      0.000   0.000  -0.000
    2  4 3dyz       1.25887   0.00045     -0.000   0.000  -0.000
    2  5 3dz2       1.13241   0.00020     -0.000   0.000  -0.000
    2  6 3dxz       1.25887   0.00045     -0.000   0.000  -0.000
    2  7 3dx2-y2    1.53533   0.00006      0.000   0.000  -0.000
    2  8 3dxy      -0.02013   0.00004      0.000   0.000  -0.000
    2  9 3dyz      -0.01995   0.00001     -0.000   0.000  -0.000
    2 10 3dz2       0.08162   0.00008     -0.000   0.000  -0.000
    2 11 3dxz      -0.01995   0.00001     -0.000   0.000  -0.000
    2 12 3dx2-y2   -0.02022   0.00004      0.000   0.000  -0.000
    2 13 4Ppy       0.11520   0.00008     -0.000   0.000  -0.000
    2 14 4Ppz       0.10388   0.00015      0.000   0.000   0.000
    2 15 4Ppx       0.11520   0.00008     -0.000   0.000  -0.000
    2     Total     8.09619   0.00107     -0.001   0.000  -0.000

    3  1 4s         1.33999   0.02815     -0.000   0.000   0.028
    3  2 4s         0.11290   0.06417      0.000   0.000  -0.064
    3  3 3dxy       1.19086   0.67783      0.002   0.000  -0.678
    3  4 3dyz       1.26214   0.46516      0.001   0.000  -0.465
    3  5 3dz2       1.29047   0.45449      0.001   0.000  -0.454
    3  6 3dxz       1.26214   0.46516      0.001   0.000  -0.465
    3  7 3dx2-y2    1.19050   0.67830      0.002   0.000  -0.678
    3  8 3dxy       0.05204   0.07491      0.000   0.000  -0.075
    3  9 3dyz       0.03399   0.06226      0.000   0.000  -0.062
    3 10 3dz2       0.07132   0.04749      0.000   0.000  -0.047
    3 11 3dxz       0.03399   0.06226      0.000   0.000  -0.062
    3 12 3dx2-y2    0.05197   0.07487      0.000   0.000  -0.075
    3 13 4Ppy       0.02752   0.00565      0.000   0.000   0.006
    3 14 4Ppz       0.00455   0.00171     -0.000   0.000  -0.002
    3 15 4Ppx       0.02752   0.00565      0.000   0.000   0.006
    3     Total     7.95191   3.08913      0.006   0.000  -3.089

----------------------------------------------------------------
Total              24.00000   0.01193      0.012   0.000  -0.000


siesta: Program's energy decomposition (eV):
siesta: Ebs     =      -138.374969
siesta: Eions   =      2141.484345
siesta: Ena     =        95.469235
siesta: Ekin    =      2353.968801
siesta: Enl     =     -1462.667828
siesta: Eso     =         0.000000
siesta: Edftu   =         0.000000
siesta: DEna    =       -28.076571
siesta: DUscf   =         2.943776
siesta: DUext   =         0.000000
siesta: Exc     =     -1147.148253
siesta: eta*DQ  =         0.000000
siesta: Emadel  =         0.000000
siesta: Emeta   =         0.000000
siesta: Emolmec =         0.000000
siesta: Ekinion =         0.000000
siesta: Eharris =     -2326.995169
siesta: Etot    =     -2326.995184
siesta: FreeEng =     -2327.088916

siesta: Final energy (eV):
siesta:  Band Struct. =    -138.374969
siesta:       Kinetic =    2353.968801
siesta:       Hartree =    1406.999500
siesta:       Edftu   =       0.000000
siesta:       Eso     =       0.000000
siesta:    Ext. field =       0.000000
siesta:   Exch.-corr. =   -1147.148253
siesta:  Ion-electron =   -4747.117382
siesta:       Ion-ion =    -193.697851
siesta:       Ekinion =       0.000000
siesta:         Total =   -2326.995184
siesta:         Fermi =      -3.682290

siesta: Atomic forces (eV/Ang):
siesta:      1    0.000000    0.000000   -0.753271
siesta:      2   -0.000000   -0.000000    0.000028
siesta:      3   -0.000000    0.000000    0.753244
siesta: ----------------------------------------
siesta:    Tot   -0.000000    0.000000    0.000001

siesta: Stress tensor (static) (eV/Ang**3):
siesta:     0.004173   -0.000000   -0.000000
siesta:    -0.000000    0.004173    0.000000
siesta:     0.000000    0.000000    0.005391

siesta: Cell volume =        426.771459 Ang**3

siesta: Pressure (static):
siesta:                Solid            Molecule  Units
siesta:          -0.00004987         -0.00002516  Ry/Bohr**3
siesta:          -0.00457889         -0.00230988  eV/Ang**3
siesta:          -7.33627281         -3.70088141  kBar
(Free)E+ p_basis*V_orbitals  =       -2324.818987
(Free)Eharris+ p_basis*V_orbitals  =       -2324.818972
     spin moment: S , {S} =    0.01193   0.01193   0.00000  -0.00001

cite: Please see "mix_pulay.bib" for an exhaustive BiBTeX file.
cite: Please clearly indicate Siesta version in published work: v4.1-b4-351
cite: This calculation has made use of the following articles
cite: which are encouraged to be cited in a published work.
        Primary SIESTA paper
          DOI: www.doi.org/10.1088/0953-8984/14/11/302

>> End of run:  22-JAN-2021  23:15:27
Job completed
