Siesta Version  : v4.1-b4-351
Architecture    : x86_64-linux-n-62-26-19
Compiler version: GNU Fortran (GCC) 9.3.0
Compiler flags  : mpifort -m64 -fPIC -O3 -march=native -ftree-vectorize -fexpensive-optimizatioons -funroll-loops -fprefetch-loop-arrays -fno-second-underscore  -flto
PP flags        : -I/dtu/sw/dcc/SL73/2020-aug/generic/build-tools/1.0/include -I/dtu/sw/dcc/SL773/2020-aug/generic/gcc/9.3.0/include -I/dtu/sw/dcc/SL73/2020-aug/generic/gcc/9.3.0/include -I/dtu/sw/dcc/SL73/2020-aug/XeonE5-2660v3/gnu/9.3.0/zlib/1.2.11/include -I/dtu/sw/dcc/SL73/2020-aug/generic/numactl/2.0.12/include -I/dtu/sw/dcc/SL73/2020-aug/XeonE5-2660v3/gnu/9.3.0/libxml2/2.9.10/include -I/dtu/sw/dcc/SL73/2020-aug/XeonE5-2660v3/gnu/9.3.0/hwloc/2.2.0/include -I/dtu/sw/dcc/SL73/2020-aug/XeonE5-2660v3/gnu/9.3.0/knem/1.1.4/include -I/dtu/sw/dcc/SL73/2020-aug/XeonE5-2660v3/gnu/9.3.0/ucx/1.8.1/include -I/dtu/sw/dcc/SL73/2020-aug/XeonE5-2660v3/gnu/9.3.0/openmpi/4.0.4/include -I/dtu/sw/dcc/SL73/2020-aug/XeonE5-2660v3/gnu/9.3.0/szip/2.1.1/include -I/dtu/sw/dcc/SL73/2020-aug/XeonE5-2660v3/gnu/9.3.0/hdf5/1.12.0/include -I/dtu/sw/dcc/SL73/2020-aug/XeonE5-2660v3/gnu/9.3.0/pnetcdf/1.12.1/include -I/dtu/sw/dcc/SL73/2020-aug/generic/gen-zlib/1.2.11/include -I/dtu/sw/dcc/SL73/2020-aug/generic/openssl/1.1.1/include -I/dtu/sw/dcc/SL73/2020-aug/generic/libssh2/1.8.2/include -I/dtu/sw/dcc/SL73/2020-aug/generic/curl/7.65.1/include -I/dtu/sw/dcc/SL73/2020-aug/XeonE5-2660v3/gnu/9.3.0/netcdf/4.7.4/include -I/dtu/sw/dcc/SL73/2020-aug/XeonE5-2660v3/gnu/9.3.0/flook/0.8.1/include -I/dtu/sw/dcc/SL73/2020-aug/XeonE5-2660v3/gnu/9.3.0/fftw/3.3.8/include -I/dtu/sw/dcc/SL73/2020-aug/XeonE5-2660v3/gnu/9.3.0/parmetis/4.0.3/include -I/dtu/sw/dcc/SL73/2020-aug/XeonE5-2660v3/gnu/9.3.0/scalapack/2.1.0/include -I/dtu/sw/dcc/SL73/2020-aug/XeonE5-2660v3/gnu/9.3.0/lapack/3.9.0/include -I/dtu/sw/dcc/SL73/2020-aug/XeonE5-2660v3/gnu/9.3.0/blis/0.7.0/include -I/dtu/sw/dcc/SL73/2020-aug/XeonE5-2660v3/gnu/9.3.0/scotch/6.0.9/include -I/dtu/sw/dcc/SL73/2020-aug/XeonE5-2660v3/gnu/9.3.0/mumps/5.3.3/include -I/dtu/sw/dcc/SL73/2020-aug/XeonE5-2660v3/gnu/9.3.0/elpa/2020.05.001/include -DSIESTA__ELPA -DMPI -DFC_HAVE_FLUSH -DFC_HAVE_ABORT -DCDF -DCDF4 -DSIESTA__FLOOK  -DNCDF -DNCDF_4 -DNCDF_PARALLEL -DTS_NOCHECKS -DSIESTA__METIS -DSIESTA__MUMPS -DSIESTA__MRRR -I/dtu/sw/dcc/SL73/2020-aug/XeonE5-2660v3/gnu/9.3.0/elpa/2020.05.001/include/elpa
Libraries       : libncdf.a libfdict.a -lnetcdff -lnetcdf -lpnetcdf -lhdf5_hl -lhdf5 -lz  -lzmuumps -lmumps_common -lesmumps -lscotch -lscotcherr -lpord -lparmetis -lmetis -lelpa -lscalapack -llapack -lblis  -L/dtu/sw/dcc/SL73/2020-aug/XeonE5-2660v3/gnu/9.3.0/flook/0.8.1/lib -Wl,-rpath=/dtu/sw/dcc/SL73/2020-aug/XeonE5-2660v3/gnu/9.3.0/flook/0.8.1/lib -lflookall -ldl  -flto -fuse-linker-plugin  -lmetis
PARALLEL version
NetCDF support
NetCDF-4 support
NetCDF-4 MPI-IO support
METIS ordering support
Lua support

* Running on 8 nodes in parallel
>> Start of run:  22-JAN-2021  23:14:27

                           ***********************       
                           *  WELCOME TO SIESTA  *       
                           ***********************       

reinit: Reading from ../mix_broyden.fdf

reinit: -----------------------------------------------------------------------
reinit: System Name: Linear Fe3 cluster.
reinit: -----------------------------------------------------------------------
reinit: System Label: mix_broyden
reinit: -----------------------------------------------------------------------
Deprecated spin keyword overridden by new-style 'Spin' input
Option from deprecated keyword: non-collinear
Option from 'Spin' keyword input: non-collinear

initatom: Reading input for the pseudopotentials and atomic orbitals ----------
Species number:   1 Atomic number:   26 Label: fe_nc

Ground state valence configuration:   4s02  3d06
Reading pseudopotential information in formatted form from fe_nc.psf

Valence configuration for pseudopotential generation:
4s( 1.00) rc: 2.00
4p( 0.00) rc: 2.00
3d( 7.00) rc: 2.00
4f( 0.00) rc: 2.00
For fe_nc, standard SIESTA heuristics set lmxkb to 3
 (one more than the basis l, including polarization orbitals).
Use PS.lmax or PS.KBprojectors blocks to override.
fe_nc: nkbl increased for l=1 due to the presence of a polarization orbital

<basis_specs>
===============================================================================
fe_nc                Z=  26    Mass=  55.850        Charge= 0.17977+309
Lmxo=2 Lmxkb= 3    BasisType=split      Semic=F
L=0  Nsemic=0  Cnfigmx=4
          i=1  nzeta=2  polorb=1  (4s)
            splnorm:   0.15000    
               vcte:    0.0000    
               rinn:    0.0000    
               qcoe:    0.0000    
               qyuk:    0.0000    
               qwid:   0.10000E-01
                rcs:    0.0000      0.0000    
            lambdas:    1.0000      1.0000    
L=1  Nsemic=0  Cnfigmx=4
L=2  Nsemic=0  Cnfigmx=3
          i=1  nzeta=2  polorb=0  (3d)
            splnorm:   0.15000    
               vcte:    0.0000    
               rinn:    0.0000    
               qcoe:    0.0000    
               qyuk:    0.0000    
               qwid:   0.10000E-01
                rcs:    0.0000      0.0000    
            lambdas:    1.0000      1.0000    
-------------------------------------------------------------------------------
L=0  Nkbl=1  erefs: 0.17977+309
L=1  Nkbl=2  erefs: 0.17977+309 0.17977+309
L=2  Nkbl=1  erefs: 0.17977+309
L=3  Nkbl=1  erefs: 0.17977+309
===============================================================================
</basis_specs>

atom: Called for fe_nc                 (Z =  26)

read_vps: Pseudopotential generation method:
read_vps: ATM3      Troullier-Martins                       
Valence charge for ps generation:    8.00000

read_vps: Pseudopotential includes a core correction:
read_vps: Pseudo-core for xc-correction

xc_check: Exchange-correlation functional:
xc_check: Ceperley-Alder
V l=0 = -2*Zval/r beyond r=  2.8345
V l=1 = -2*Zval/r beyond r=  2.8345
V l=2 = -2*Zval/r beyond r=  2.8345
V l=3 = -2*Zval/r beyond r=  2.8345
All V_l potentials equal beyond r=  1.9726
This should be close to max(r_c) in ps generation
All pots = -2*Zval/r beyond r=  2.8345
Using large-core scheme for Vlocal

atom: Estimated core radius    2.83451
atom: Maximum radius for 4*pi*r*r*local-pseudopot. charge    3.13263
atom: Maximum radius for r*vlocal+2*Zval:    2.87017
GHOST: No ghost state for L =  0
KBgen: More than one KB projector for l=  1
KBgen: ghost states analysis will be not performed
GHOST: No ghost state for L =  2
GHOST: No ghost state for L =  3

KBgen: Kleinman-Bylander projectors: 
   l= 0   rc=  2.047986   el= -0.319855   Ekb=  3.923406   kbcos=  0.252820
   l= 1   rc=  2.047986   el= -0.070931   Ekb=  3.313875   kbcos=  0.157841
   l= 1   rc=  2.047986   el=  0.001457   Ekb=  6.640675   kbcos=  0.001631
   l= 2   rc=  2.022544   el= -0.307264   Ekb=-12.478630   kbcos= -0.654791
   l= 3   rc=  2.047986   el=  0.003534   Ekb= -1.656634   kbcos= -0.005966

KBgen: Total number of  Kleinman-Bylander projectors:   19
atom: -------------------------------------------------------------------------

atom: SANKEY-TYPE ORBITALS:
atom: Selected multiple-zeta basis: split     

SPLIT: Orbitals with angular momentum L= 0

SPLIT: Basis orbitals for state 4s

SPLIT: PAO cut-off radius determined from an
SPLIT: energy shift=  0.020000 Ry

   izeta = 1
                 lambda =    1.000000
                     rc =    6.799774
                 energy =   -0.302238
                kinetic =    0.298810
    potential(screened) =   -0.601048
       potential(ionic) =   -5.818758

   izeta = 2
                 rmatch =    6.468141
              splitnorm =    0.150000
                 energy =   -0.257217
                kinetic =    0.445909
    potential(screened) =   -0.703126
       potential(ionic) =   -6.273620

SPLIT: Orbitals with angular momentum L= 2

SPLIT: Basis orbitals for state 3d

SPLIT: PAO cut-off radius determined from an
SPLIT: energy shift=  0.020000 Ry

   izeta = 1
                 lambda =    1.000000
                     rc =    4.022404
                 energy =   -0.287031
                kinetic =    8.952870
    potential(screened) =   -9.239901
       potential(ionic) =  -18.247427

   izeta = 2
                 rmatch =    2.291856
              splitnorm =    0.150000
                 energy =    0.070417
                kinetic =   12.282791
    potential(screened) =  -12.212374
       potential(ionic) =  -21.929746

POLgen: Perturbative polarization orbital with L=  1

POLgen: Polarization orbital for state 4s

   izeta = 1
                     rc =    6.799774
                 energy =   -0.003154
                kinetic =    0.566601
    potential(screened) =   -0.569755
       potential(ionic) =   -5.393577
atom: Total number of Sankey-type orbitals: 15

atm_pop: Valence configuration (for local Pseudopot. screening):
 4s( 2.00)                                                            
 4p( 0.00)                                                            
 3d( 6.00)                                                            
Vna: chval, zval:    8.00000   8.00000

Vna:  Cut-off radius for the neutral-atom potential:   6.799774
comcore: Pseudo-core radius Rcore=  3.874354

atom: _________________________________________________________________________

prinput: Basis input ----------------------------------------------------------

PAO.BasisType split     

%block ChemicalSpeciesLabel
    1   26 fe_nc                   # Species index, atomic number, species label
%endblock ChemicalSpeciesLabel

%block PAO.Basis                 # Define Basis set
fe_nc                 2                    # Species label, number of l-shells
 n=4   0   2 P   1                   # n, l, Nzeta, Polarization, NzetaPol
   6.800      6.468   
   1.000      1.000   
 n=3   2   2                         # n, l, Nzeta 
   4.022      2.292   
   1.000      1.000   
%endblock PAO.Basis

prinput: ----------------------------------------------------------------------

Dumping basis to NetCDF file fe_nc.ion.nc
coor:   Atomic-coordinates input format  =     Cartesian coordinates
coor:                                            (in Bohr units)

siesta: Atomic coordinates (Bohr) and species
siesta:      0.00000   0.00000   3.64400  1        1
siesta:      0.00000   0.00000   0.00000  1        2
siesta:      0.00000   0.00000  -3.64400  1        3

siesta: System type = bulk      

initatomlists: Number of atoms, orbitals, and projectors:      3    45    57

siesta: ******************** Simulation parameters ****************************
siesta:
siesta: The following are some of the parameters of the simulation.
siesta: A complete list of the parameters used, including default values,
siesta: can be found in file out.fdf
siesta:
redata: Spin configuration                          = non-collinear
redata: Number of spin components                   = 4
redata: Time-Reversal Symmetry                      = F
redata: Spin spiral                                 = F
redata: Long output                                 =   F
redata: Number of Atomic Species                    =        1
redata: Charge density info will appear in .RHO file
redata: Write Mulliken Pop.                         = Atomic and Orbital charges
redata: Matel table size (NRTAB)                    =     1024
redata: Mesh Cutoff                                 =   150.0000 Ry
redata: Net charge of the system                    =     0.0000 |e|
redata: Min. number of SCF Iter                     =        0
redata: Max. number of SCF Iter                     =     1000
redata: SCF convergence failure will abort job
redata: SCF mix quantity                            = Hamiltonian
redata: Mix DM or H after convergence               =   F
redata: Recompute H after scf cycle                 =   F
redata: Mix DM in first SCF step                    =   T
redata: Write Pulay info on disk                    =   F
redata: New DM Occupancy tolerance                  = 0.000000000001
redata: No kicks to SCF
redata: DM Mixing Weight for Kicks                  =     0.5000
redata: Require Harris convergence for SCF          =   F
redata: Harris energy tolerance for SCF             =     0.000100 eV
redata: Require DM convergence for SCF              =   T
redata: DM tolerance for SCF                        =     0.000100
redata: Require EDM convergence for SCF             =   F
redata: EDM tolerance for SCF                       =     0.001000 eV
redata: Require H convergence for SCF               =   T
redata: Hamiltonian tolerance for SCF               =     0.001000 eV
redata: Require (free) Energy convergence for SCF   =   F
redata: (free) Energy tolerance for SCF             =     0.000100 eV
redata: Using Saved Data (generic)                  =   F
redata: Use continuation files for DM               =   T
redata: Neglect nonoverlap interactions             =   F
redata: Method of Calculation                       = Diagonalization
redata: Electronic Temperature                      =  1160.4438 K
redata: Fix the spin of the system                  =   F
redata: Dynamics option                             = Single-point calculation
mix.SCF: Debug messages                          = T
mix.SCF: Broyden mixing                          = broyden
mix.SCF:    History steps                        = 6
mix.SCF:    Linear mixing weight                 =     0.005000
mix.SCF:    Inverse Jacobian weight              =     0.010000
mix.SCF:    Weight prime                         =     0.010000
mix.SCF:    SVD condition                        = 0.1000E-07
mix.SCF: Spin-component mixing                   all
redata: Save all siesta data in one NC              =   F
redata: ***********************************************************************

%block SCF.Mixers
  broyden
%endblock SCF.Mixers

%block SCF.Mixer.broyden
  # Mixing method
  method broyden

  # Mixing options
  weight 0.0100
  weight.linear 0.0050
  weight.prime 0.0100
  history 6
%endblock SCF.Mixer.broyden

DM_history_depth set to one: no extrapolation allowed by default for geometry relaxation
Size of DM history Fstack: 1
Total number of electrons:    24.000000
Total ionic charge:    24.000000

* ProcessorY, Blocksize:    2   6


* Orbital distribution balance (max,min):     6     3


Time-reversal symmetry not used.

siesta: k-grid: Number of k-points =     1
siesta: k-grid: Cutoff (effective) =     3.175 Ang
siesta: k-grid: Supercell and displacements
siesta: k-grid:    1   0   0      0.000
siesta: k-grid:    0   1   0      0.000
siesta: k-grid:    0   0   1      0.000

diag: Algorithm                                     = D&C
diag: Parallel over k                               =   F
diag: Use parallel 2D distribution                  =   T
diag: Parallel block-size                           = 6
diag: Parallel distribution                         =     2 x     4
diag: Used triangular part                          = Lower
diag: Absolute tolerance                            =  0.100E-15
diag: Orthogonalization factor                      =  0.100E-05
diag: Memory factor                                 =  1.0000


ts: **************************************************************
ts: Save H and S matrices                           =    F
ts: Save DM and EDM matrices                        =    F
ts: Only save the overlap matrix S                  =    F
ts: **************************************************************

************************ Begin: TS CHECKS AND WARNINGS ************************
************************ End: TS CHECKS AND WARNINGS **************************


                     ====================================
                        Single-point calculation
                     ====================================

outcell: Unit cell vectors (Ang):
        6.350124    0.000000    0.000000
        0.000000    6.350124    0.000000
        0.000000    0.000000   10.583540

outcell: Cell vector modules (Ang)   :    6.350124    6.350124   10.583540
outcell: Cell angles (23,13,12) (deg):     90.0000     90.0000     90.0000
outcell: Cell volume (Ang**3)        :    426.7715
Gamma-point calculation with interaction between periodic images
Some features might not work optimally:
e.g. DM initialization from atomic data
<dSpData1D:S at geom step 0
  <sparsity:sparsity for geom step 0
    nrows_g=45 nrows=6 sparsity=.1333 nnzs=270, refcount: 7>
  <dData1D:(new from dSpData1D) n=270, refcount: 1>
refcount: 1>
new_DM -- step:     1
Initializing Density Matrix...

Attempting to read DM from file... Failed...
DM filled with atomic data (user-defined):
<dSpData2D:DM initialized from atoms
  <sparsity:sparsity for geom step 0
    nrows_g=45 nrows=6 sparsity=.1333 nnzs=270, refcount: 8>
  <dData2D:DM n=270 m=4, refcount: 1>
refcount: 1>
     spin moment: S , {S} =    1.50000   1.50000   0.00000   0.00000
No. of atoms with KB's overlaping orbs in proc 0. Max # of overlaps:       3      45
New grid distribution:   1
           1       1:   24    1:   12    1:   10
           2       1:   24    1:   12   11:   20
           3       1:   24    1:   12   21:   30
           4       1:   24    1:   12   31:   40
           5       1:   24   13:   24    1:   10
           6       1:   24   13:   24   11:   20
           7       1:   24   13:   24   21:   30
           8       1:   24   13:   24   31:   40

InitMesh: MESH =    48 x    48 x    80 =      184320
InitMesh: (bp) =    24 x    24 x    40 =       23040
InitMesh: Mesh cutoff (required, used) =   150.000   157.914 Ry
ExtMesh (bp) on 0 =    80 x    68 x    66 =      359040
New grid distribution:   2
           1      12:   24    1:   11    1:   15
           2       1:   11    1:   11    1:   15
           3      12:   24    1:   11   16:   40
           4       1:   11    1:   11   16:   40
           5      12:   24   12:   24    1:   15
           6       1:   11   12:   24    1:   15
           7      12:   24   12:   24   16:   40
           8       1:   11   12:   24   16:   40
New grid distribution:   3
           1       1:   12   13:   24   20:   40
           2      13:   24    1:   12    1:   19
           3      13:   24    1:   12   20:   40
           4      13:   24   13:   24    1:   19
           5       1:   12    1:   12   20:   40
           6       1:   12    1:   12    1:   19
           7      13:   24   13:   24   20:   40
           8       1:   12   13:   24    1:   19
Setting up quadratic distribution...
ExtMesh (bp) on 0 =    69 x    67 x    71 =      328233
PhiOnMesh: Number of (b)points on node 0 =                 2145
PhiOnMesh: nlist on node 0 =                25197

stepf: Fermi-Dirac step function

siesta: Program's energy decomposition (eV):
siesta: Ebs     =       296.552197
siesta: Eions   =      2141.484345
siesta: Ena     =        95.469235
siesta: Ekin    =      2894.135049
siesta: Enl     =     -1845.643791
siesta: Eso     =         0.000000
siesta: Edftu   =         0.000000
siesta: DEna    =      -119.991632
siesta: DUscf   =        64.250494
siesta: DUext   =         0.000000
siesta: Exc     =     -1226.471890
siesta: eta*DQ  =         0.000000
siesta: Emadel  =         0.000000
siesta: Emeta   =         0.000000
siesta: Emolmec =         0.000000
siesta: Ekinion =         0.000000
siesta: Eharris =     -2188.621529
siesta: Etot    =     -2279.736880
siesta: FreeEng =     -2280.290972

        iscf     Eharris(eV)        E_KS(eV)     FreeEng(eV)     dDmax    Ef(eV) dHmax(eV)
   scf:    1    -2188.621529    -2279.736880    -2280.290972  0.981529 -7.983581 45.033840
     spin moment: S , {S} =    1.52577   1.52577   0.00000  -0.00000
mix (1): Broyden
mix (2): Broyden
mix (4): Broyden
mix (0): Broyden
mix (5): Broyden
mix (6): Broyden
mix (7): Broyden
mix (4): Broyden (initial), alpha = 0.5000E-02
mix (1): Broyden (initial), alpha = 0.5000E-02
mix (2): Broyden (initial), alpha = 0.5000E-02
mix (0): Broyden (initial), alpha = 0.5000E-02
mix (7): Broyden (initial), alpha = 0.5000E-02
mix (3): Broyden
mix (5): Broyden (initial), alpha = 0.5000E-02
mix (6): Broyden (initial), alpha = 0.5000E-02
mix (3): Broyden (initial), alpha = 0.5000E-02
timer: Routine,Calls,Time,% = IterSCF        1       0.108   7.80
   scf:    2    -2286.164749    -2282.993914    -2283.545632  0.021959 -7.908500 43.162705
     spin moment: S , {S} =    1.56065   1.56065   0.00000  -0.00000
mix (3): Broyden
mix (4): Broyden
mix (1): Broyden
mix (2): Broyden
mix (7): Broyden
mix (6): Broyden
mix (5): Broyden
mix (2): n_hist = 2 / 6
mix (3): n_hist = 2 / 6
mix (4): n_hist = 2 / 6
mix (1): n_hist = 2 / 6
mix (5): n_hist = 2 / 6
mix (7): n_hist = 2 / 6
mix (6): n_hist = 2 / 6
mix (0): Broyden
mix (0): n_hist = 2 / 6
mix (2): weights =  0.1345E+01
mix (1): weights =  0.1345E+01
mix (3): weights =  0.1345E+01
mix (4): weights =  0.1345E+01
mix (0): weights =  0.1345E+01
mix (6): weights =  0.1345E+01
mix (5): weights =  0.1345E+01
mix (7): weights =  0.1345E+01
mix (4): G =   0.010000, sum(coeff) = 0.2106E+02, coeff =  0.2106E+02
mix (2): G =   0.010000, sum(coeff) = 0.2106E+02, coeff =  0.2106E+02
mix (1): G =   0.010000, sum(coeff) = 0.2106E+02, coeff =  0.2106E+02
mix (3): G =   0.010000, sum(coeff) = 0.2106E+02, coeff =  0.2106E+02
mix (5): G =   0.010000, sum(coeff) = 0.2106E+02, coeff =  0.2106E+02
mix (7): G =   0.010000, sum(coeff) = 0.2106E+02, coeff =  0.2106E+02
mix (0): G =   0.010000, sum(coeff) = 0.2106E+02, coeff =  0.2106E+02
mix (6): G =   0.010000, sum(coeff) = 0.2106E+02, coeff =  0.2106E+02
   scf:    3    -2065.558550    -2247.642031    -2247.806184  0.506553 -5.801222 32.755221
mix (4): Broyden
mix (2): Broyden
mix (1): Broyden
mix (3): Broyden
     spin moment: S , {S} =    2.29243   2.29243   0.00000  -0.00000
mix (7): Broyden
mix (5): Broyden
mix (3): n_hist = 3 / 6
mix (4): n_hist = 3 / 6
mix (2): n_hist = 3 / 6
mix (6): Broyden
mix (6): n_hist = 3 / 6
mix (1): n_hist = 3 / 6
mix (7): n_hist = 3 / 6
mix (5): n_hist = 3 / 6
mix (0): Broyden
mix (0): n_hist = 3 / 6
mix (1): weights =  0.1345E+01 0.1467E+01
mix (3): weights =  0.1345E+01 0.1467E+01
mix (4): weights =  0.1345E+01 0.1467E+01
mix (2): weights =  0.1345E+01 0.1467E+01
mix (6): weights =  0.1345E+01 0.1467E+01
mix (0): weights =  0.1345E+01 0.1467E+01
mix (5): weights =  0.1345E+01 0.1467E+01
mix (7): weights =  0.1345E+01 0.1467E+01
mix (0): G =   0.010000, sum(coeff) = 0.1040E+03, coeff =  0.1073E+03 -.3246E+01
mix (6): G =   0.010000, sum(coeff) = 0.1040E+03, coeff =  0.1073E+03 -.3246E+01
mix (5): G =   0.010000, sum(coeff) = 0.1040E+03, coeff =  0.1073E+03 -.3246E+01
mix (1): G =   0.010000, sum(coeff) = 0.1040E+03, coeff =  0.1073E+03 -.3246E+01
mix (3): G =   0.010000, sum(coeff) = 0.1040E+03, coeff =  0.1073E+03 -.3246E+01
mix (4): G =   0.010000, sum(coeff) = 0.1040E+03, coeff =  0.1073E+03 -.3246E+01
mix (2): G =   0.010000, sum(coeff) = 0.1040E+03, coeff =  0.1073E+03 -.3246E+01
mix (7): G =   0.010000, sum(coeff) = 0.1040E+03, coeff =  0.1073E+03 -.3246E+01
   scf:    4    -1533.901703    -1953.658742    -1953.658743  0.564758 -2.705452103.220882
     spin moment: S , {S} =    0.01090   0.01090   0.00000  -0.00000
mix (2): Broyden
mix (2): n_hist = 4 / 6
mix (6): Broyden
mix (5): Broyden
mix (1): Broyden
mix (1): n_hist = 4 / 6
mix (4): Broyden
mix (4): n_hist = 4 / 6
mix (0): Broyden
mix (0): n_hist = 4 / 6
mix (7): Broyden
mix (7): n_hist = 4 / 6
mix (6): n_hist = 4 / 6
mix (5): n_hist = 4 / 6
mix (3): Broyden
mix (3): n_hist = 4 / 6
mix (4): weights =  0.1467E+01 0.1467E+01 0.1137E+01
mix (0): weights =  0.1467E+01 0.1467E+01 0.1137E+01
mix (2): weights =  0.1467E+01 0.1467E+01 0.1137E+01
mix (1): weights =  0.1467E+01 0.1467E+01 0.1137E+01
mix (7): weights =  0.1467E+01 0.1467E+01 0.1137E+01
mix (6): weights =  0.1467E+01 0.1467E+01 0.1137E+01
mix (5): weights =  0.1467E+01 0.1467E+01 0.1137E+01
mix (3): weights =  0.1467E+01 0.1467E+01 0.1137E+01
mix (5): G =   0.010000, sum(coeff) = 0.5180E+02, coeff =  0.5471E+02 -.3241E+01 0.3318E+00
mix (4): G =   0.010000, sum(coeff) = 0.5180E+02, coeff =  0.5471E+02 -.3241E+01 0.3318E+00
mix (0): G =   0.010000, sum(coeff) = 0.5180E+02, coeff =  0.5471E+02 -.3241E+01 0.3318E+00
mix (1): G =   0.010000, sum(coeff) = 0.5180E+02, coeff =  0.5471E+02 -.3241E+01 0.3318E+00
mix (7): G =   0.010000, sum(coeff) = 0.5180E+02, coeff =  0.5471E+02 -.3241E+01 0.3318E+00
mix (6): G =   0.010000, sum(coeff) = 0.5180E+02, coeff =  0.5471E+02 -.3241E+01 0.3318E+00
mix (2): G =   0.010000, sum(coeff) = 0.5180E+02, coeff =  0.5471E+02 -.3241E+01 0.3318E+00
mix (3): G =   0.010000, sum(coeff) = 0.5180E+02, coeff =  0.5471E+02 -.3241E+01 0.3318E+00
   scf:    5    -1930.123436    -1941.962870    -1941.962870  0.056858 -2.870883103.587116
     spin moment: S , {S} =    0.00809   0.00809   0.00000  -0.00000
mix (2): Broyden
mix (2): n_hist = 5 / 6
mix (5): Broyden
mix (4): Broyden
mix (4): n_hist = 5 / 6
mix (1): Broyden
mix (1): n_hist = 5 / 6
mix (6): Broyden
mix (0): Broyden
mix (0): n_hist = 5 / 6
mix (5): n_hist = 5 / 6
mix (7): Broyden
mix (7): n_hist = 5 / 6
mix (6): n_hist = 5 / 6
mix (3): Broyden
mix (3): n_hist = 5 / 6
mix (2): weights =  0.1467E+01 0.1137E+01 0.1137E+01 0.1137E+01
mix (0): weights =  0.1467E+01 0.1137E+01 0.1137E+01 0.1137E+01
mix (4): weights =  0.1467E+01 0.1137E+01 0.1137E+01 0.1137E+01
mix (1): weights =  0.1467E+01 0.1137E+01 0.1137E+01 0.1137E+01
mix (7): weights =  0.1467E+01 0.1137E+01 0.1137E+01 0.1137E+01
mix (6): weights =  0.1467E+01 0.1137E+01 0.1137E+01 0.1137E+01
mix (5): weights =  0.1467E+01 0.1137E+01 0.1137E+01 0.1137E+01
mix (3): weights =  0.1467E+01 0.1137E+01 0.1137E+01 0.1137E+01
mix (1): G =   0.010000, sum(coeff) = -.1003E+02, coeff =  0.3041E+01 -.4751E+00 -.9546E+00 -.1164E+02
mix (5): G =   0.010000, sum(coeff) = -.1003E+02, coeff =  0.3041E+01 -.4751E+00 -.9546E+00 -.1164E+02
mix (2): G =   0.010000, sum(coeff) = -.1003E+02, coeff =  0.3041E+01 -.4751E+00 -.9546E+00 -.1164E+02
mix (7): G =   0.010000, sum(coeff) = -.1003E+02, coeff =  0.3041E+01 -.4751E+00 -.9546E+00 -.1164E+02
mix (0): G =   0.010000, sum(coeff) = -.1003E+02, coeff =  0.3041E+01 -.4751E+00 -.9546E+00 -.1164E+02
mix (6): G =   0.010000, sum(coeff) = -.1003E+02, coeff =  0.3041E+01 -.4751E+00 -.9546E+00 -.1164E+02
mix (4): G =   0.010000, sum(coeff) = -.1003E+02, coeff =  0.3041E+01 -.4751E+00 -.9546E+00 -.1164E+02
mix (3): G =   0.010000, sum(coeff) = -.1003E+02, coeff =  0.3041E+01 -.4751E+00 -.9546E+00 -.1164E+02
   scf:    6    -1665.809915    -2223.002589    -2223.306051  0.957129 -1.021614 40.364156
     spin moment: S , {S} =    0.58298   0.58298   0.00000  -0.00000
mix (4): Broyden
mix (4): n_hist = 6 / 6
mix (1): Broyden
mix (1): n_hist = 6 / 6
mix (5): Broyden
mix (2): Broyden
mix (2): n_hist = 6 / 6
mix (6): Broyden
mix (0): Broyden
mix (0): n_hist = 6 / 6
mix (5): n_hist = 6 / 6
mix (7): Broyden
mix (6): n_hist = 6 / 6
mix (7): n_hist = 6 / 6
mix (3): Broyden
mix (3): n_hist = 6 / 6
mix (4): weights =  0.1137E+01 0.1137E+01 0.1137E+01 0.1137E+01 0.1371E+01
mix (1): weights =  0.1137E+01 0.1137E+01 0.1137E+01 0.1137E+01 0.1371E+01
mix (0): weights =  0.1137E+01 0.1137E+01 0.1137E+01 0.1137E+01 0.1371E+01
mix (2): weights =  0.1137E+01 0.1137E+01 0.1137E+01 0.1137E+01 0.1371E+01
mix (6): weights =  0.1137E+01 0.1137E+01 0.1137E+01 0.1137E+01 0.1371E+01
mix (5): weights =  0.1137E+01 0.1137E+01 0.1137E+01 0.1137E+01 0.1371E+01
mix (7): weights =  0.1137E+01 0.1137E+01 0.1137E+01 0.1137E+01 0.1371E+01
mix (3): weights =  0.1137E+01 0.1137E+01 0.1137E+01 0.1137E+01 0.1371E+01
mix (2): G =   0.010000, sum(coeff) = -.3647E+01, coeff =  -.5133E+00 -.9782E-01 -.4473E+00 -.2016E+01 -.5718E+00
mix (7): G =   0.010000, sum(coeff) = -.3647E+01, coeff =  -.5133E+00 -.9782E-01 -.4473E+00 -.2016E+01 -.5718E+00
mix (4): G =   0.010000, sum(coeff) = -.3647E+01, coeff =  -.5133E+00 -.9782E-01 -.4473E+00 -.2016E+01 -.5718E+00
mix (1): G =   0.010000, sum(coeff) = -.3647E+01, coeff =  -.5133E+00 -.9782E-01 -.4473E+00 -.2016E+01 -.5718E+00
mix (6): G =   0.010000, sum(coeff) = -.3647E+01, coeff =  -.5133E+00 -.9782E-01 -.4473E+00 -.2016E+01 -.5718E+00
mix (5): G =   0.010000, sum(coeff) = -.3647E+01, coeff =  -.5133E+00 -.9782E-01 -.4473E+00 -.2016E+01 -.5718E+00
mix (0): G =   0.010000, sum(coeff) = -.3647E+01, coeff =  -.5133E+00 -.9782E-01 -.4473E+00 -.2016E+01 -.5718E+00
mix (3): G =   0.010000, sum(coeff) = -.3647E+01, coeff =  -.5133E+00 -.9782E-01 -.4473E+00 -.2016E+01 -.5718E+00
   scf:    7    -2356.756071    -2302.619966    -2302.635703  0.520397 -2.920651 24.580755
     spin moment: S , {S} =    0.69194   0.69194   0.00000   0.00000
mix (2): Broyden
mix (4): Broyden
mix (1): Broyden
mix (6): Broyden
mix (5): Broyden
mix (0): Broyden
mix (0): n_hist = 6 / 6
mix (7): Broyden
mix (7): n_hist = 6 / 6
mix (2): n_hist = 6 / 6
mix (4): n_hist = 6 / 6
mix (1): n_hist = 6 / 6
mix (6): n_hist = 6 / 6
mix (5): n_hist = 6 / 6
mix (3): Broyden
mix (3): n_hist = 6 / 6
mix (0): weights =  0.1137E+01 0.1137E+01 0.1137E+01 0.1371E+01 0.1646E+01
mix (2): weights =  0.1137E+01 0.1137E+01 0.1137E+01 0.1371E+01 0.1646E+01
mix (4): weights =  0.1137E+01 0.1137E+01 0.1137E+01 0.1371E+01 0.1646E+01
mix (1): weights =  0.1137E+01 0.1137E+01 0.1137E+01 0.1371E+01 0.1646E+01
mix (5): weights =  0.1137E+01 0.1137E+01 0.1137E+01 0.1371E+01 0.1646E+01
mix (6): weights =  0.1137E+01 0.1137E+01 0.1137E+01 0.1371E+01 0.1646E+01
mix (7): weights =  0.1137E+01 0.1137E+01 0.1137E+01 0.1371E+01 0.1646E+01
mix (3): weights =  0.1137E+01 0.1137E+01 0.1137E+01 0.1371E+01 0.1646E+01
mix (1): G =   0.010000, sum(coeff) = -.4765E+01, coeff =  -.5982E-01 -.4200E+00 -.3146E+01 -.4955E+00 -.6436E+00
mix (7): G =   0.010000, sum(coeff) = -.4765E+01, coeff =  -.5982E-01 -.4200E+00 -.3146E+01 -.4955E+00 -.6436E+00
mix (6): G =   0.010000, sum(coeff) = -.4765E+01, coeff =  -.5982E-01 -.4200E+00 -.3146E+01 -.4955E+00 -.6436E+00
mix (0): G =   0.010000, sum(coeff) = -.4765E+01, coeff =  -.5982E-01 -.4200E+00 -.3146E+01 -.4955E+00 -.6436E+00
mix (2): G =   0.010000, sum(coeff) = -.4765E+01, coeff =  -.5982E-01 -.4200E+00 -.3146E+01 -.4955E+00 -.6436E+00
mix (4): G =   0.010000, sum(coeff) = -.4765E+01, coeff =  -.5982E-01 -.4200E+00 -.3146E+01 -.4955E+00 -.6436E+00
mix (3): G =   0.010000, sum(coeff) = -.4765E+01, coeff =  -.5982E-01 -.4200E+00 -.3146E+01 -.4955E+00 -.6436E+00
mix (5): G =   0.010000, sum(coeff) = -.4765E+01, coeff =  -.5982E-01 -.4200E+00 -.3146E+01 -.4955E+00 -.6436E+00
   scf:    8    -2299.861584    -2301.256038    -2301.271205  0.030783 -2.640277 24.424474
     spin moment: S , {S} =    0.68297   0.68297   0.00000   0.00000
mix (4): Broyden
mix (4): n_hist = 6 / 6
mix (1): Broyden
mix (1): n_hist = 6 / 6
mix (6): Broyden
mix (5): Broyden
mix (2): Broyden
mix (2): n_hist = 6 / 6
mix (0): Broyden
mix (0): n_hist = 6 / 6
mix (7): Broyden
mix (7): n_hist = 6 / 6
mix (6): n_hist = 6 / 6
mix (5): n_hist = 6 / 6
mix (3): Broyden
mix (3): n_hist = 6 / 6
mix (2): weights =  0.1137E+01 0.1137E+01 0.1371E+01 0.1646E+01 0.1651E+01
mix (4): weights =  0.1137E+01 0.1137E+01 0.1371E+01 0.1646E+01 0.1651E+01
mix (0): weights =  0.1137E+01 0.1137E+01 0.1371E+01 0.1646E+01 0.1651E+01
mix (1): weights =  0.1137E+01 0.1137E+01 0.1371E+01 0.1646E+01 0.1651E+01
mix (5): weights =  0.1137E+01 0.1137E+01 0.1371E+01 0.1646E+01 0.1651E+01
mix (7): weights =  0.1137E+01 0.1137E+01 0.1371E+01 0.1646E+01 0.1651E+01
mix (6): weights =  0.1137E+01 0.1137E+01 0.1371E+01 0.1646E+01 0.1651E+01
mix (3): weights =  0.1137E+01 0.1137E+01 0.1371E+01 0.1646E+01 0.1651E+01
mix (6): G =   0.010000, sum(coeff) = -.7776E+01, coeff =  -.3804E+00 -.3199E+01 -.4475E+00 -.6418E+00 -.3108E+01
mix (1): G =   0.010000, sum(coeff) = -.7776E+01, coeff =  -.3804E+00 -.3199E+01 -.4475E+00 -.6418E+00 -.3108E+01
mix (2): G =   0.010000, sum(coeff) = -.7776E+01, coeff =  -.3804E+00 -.3199E+01 -.4475E+00 -.6418E+00 -.3108E+01
mix (4): G =   0.010000, sum(coeff) = -.7776E+01, coeff =  -.3804E+00 -.3199E+01 -.4475E+00 -.6418E+00 -.3108E+01
mix (0): G =   0.010000, sum(coeff) = -.7776E+01, coeff =  -.3804E+00 -.3199E+01 -.4475E+00 -.6418E+00 -.3108E+01
mix (5): G =   0.010000, sum(coeff) = -.7776E+01, coeff =  -.3804E+00 -.3199E+01 -.4475E+00 -.6418E+00 -.3108E+01
mix (7): G =   0.010000, sum(coeff) = -.7776E+01, coeff =  -.3804E+00 -.3199E+01 -.4475E+00 -.6418E+00 -.3108E+01
mix (3): G =   0.010000, sum(coeff) = -.7776E+01, coeff =  -.3804E+00 -.3199E+01 -.4475E+00 -.6418E+00 -.3108E+01
   scf:    9    -2298.499234    -2299.893487    -2299.905165  0.021990 -2.870182 25.845590
     spin moment: S , {S} =    0.66241   0.66241   0.00000   0.00000
mix (6): Broyden
mix (1): Broyden
mix (1): n_hist = 6 / 6
mix (2): Broyden
mix (2): n_hist = 6 / 6
mix (4): Broyden
mix (4): n_hist = 6 / 6
mix (5): Broyden
mix (7): Broyden
mix (7): n_hist = 6 / 6
mix (0): Broyden
mix (0): n_hist = 6 / 6
mix (6): n_hist = 6 / 6
mix (5): n_hist = 6 / 6
mix (3): Broyden
mix (3): n_hist = 6 / 6
mix (0): weights =  0.1137E+01 0.1371E+01 0.1646E+01 0.1651E+01 0.1610E+01
mix (1): weights =  0.1137E+01 0.1371E+01 0.1646E+01 0.1651E+01 0.1610E+01
mix (2): weights =  0.1137E+01 0.1371E+01 0.1646E+01 0.1651E+01 0.1610E+01
mix (4): weights =  0.1137E+01 0.1371E+01 0.1646E+01 0.1651E+01 0.1610E+01
mix (6): weights =  0.1137E+01 0.1371E+01 0.1646E+01 0.1651E+01 0.1610E+01
mix (7): weights =  0.1137E+01 0.1371E+01 0.1646E+01 0.1651E+01 0.1610E+01
mix (5): weights =  0.1137E+01 0.1371E+01 0.1646E+01 0.1651E+01 0.1610E+01
mix (3): weights =  0.1137E+01 0.1371E+01 0.1646E+01 0.1651E+01 0.1610E+01
mix (4): G =   0.010000, sum(coeff) = -.2232E+01, coeff =  0.1592E+01 -.2799E+00 -.8098E+00 -.3990E+01 0.1255E+01
mix (6): G =   0.010000, sum(coeff) = -.2232E+01, coeff =  0.1592E+01 -.2799E+00 -.8098E+00 -.3990E+01 0.1255E+01
mix (5): G =   0.010000, sum(coeff) = -.2232E+01, coeff =  0.1592E+01 -.2799E+00 -.8098E+00 -.3990E+01 0.1255E+01
mix (0): G =   0.010000, sum(coeff) = -.2232E+01, coeff =  0.1592E+01 -.2799E+00 -.8098E+00 -.3990E+01 0.1255E+01
mix (1): G =   0.010000, sum(coeff) = -.2232E+01, coeff =  0.1592E+01 -.2799E+00 -.8098E+00 -.3990E+01 0.1255E+01
mix (7): G =   0.010000, sum(coeff) = -.2232E+01, coeff =  0.1592E+01 -.2799E+00 -.8098E+00 -.3990E+01 0.1255E+01
mix (2): G =   0.010000, sum(coeff) = -.2232E+01, coeff =  0.1592E+01 -.2799E+00 -.8098E+00 -.3990E+01 0.1255E+01
mix (3): G =   0.010000, sum(coeff) = -.2232E+01, coeff =  0.1592E+01 -.2799E+00 -.8098E+00 -.3990E+01 0.1255E+01
   scf:   10    -2249.800231    -2313.215926    -2313.481743  0.435324 -4.113255 17.909639
     spin moment: S , {S} =    2.05902   2.05902   0.00000  -0.00000
mix (2): Broyden
mix (2): n_hist = 6 / 6
mix (4): Broyden
mix (4): n_hist = 6 / 6
mix (6): Broyden
mix (5): Broyden
mix (1): Broyden
mix (1): n_hist = 6 / 6
mix (0): Broyden
mix (0): n_hist = 6 / 6
mix (6): n_hist = 6 / 6
mix (5): n_hist = 6 / 6
mix (7): Broyden
mix (7): n_hist = 6 / 6
mix (3): Broyden
mix (3): n_hist = 6 / 6
mix (1): weights =  0.1371E+01 0.1646E+01 0.1651E+01 0.1610E+01 0.1934E+01
mix (2): weights =  0.1371E+01 0.1646E+01 0.1651E+01 0.1610E+01 0.1934E+01
mix (4): weights =  0.1371E+01 0.1646E+01 0.1651E+01 0.1610E+01 0.1934E+01
mix (0): weights =  0.1371E+01 0.1646E+01 0.1651E+01 0.1610E+01 0.1934E+01
mix (7): weights =  0.1371E+01 0.1646E+01 0.1651E+01 0.1610E+01 0.1934E+01
mix (6): weights =  0.1371E+01 0.1646E+01 0.1651E+01 0.1610E+01 0.1934E+01
mix (5): weights =  0.1371E+01 0.1646E+01 0.1651E+01 0.1610E+01 0.1934E+01
mix (3): weights =  0.1371E+01 0.1646E+01 0.1651E+01 0.1610E+01 0.1934E+01
mix (5): G =   0.010000, sum(coeff) = 0.7733E+01, coeff =  -.1393E+00 -.5042E+00 0.1586E+01 0.7242E+01 -.4518E+00
mix (1): G =   0.010000, sum(coeff) = 0.7733E+01, coeff =  -.1393E+00 -.5042E+00 0.1586E+01 0.7242E+01 -.4518E+00
mix (2): G =   0.010000, sum(coeff) = 0.7733E+01, coeff =  -.1393E+00 -.5042E+00 0.1586E+01 0.7242E+01 -.4518E+00
mix (4): G =   0.010000, sum(coeff) = 0.7733E+01, coeff =  -.1393E+00 -.5042E+00 0.1586E+01 0.7242E+01 -.4518E+00
mix (0): G =   0.010000, sum(coeff) = 0.7733E+01, coeff =  -.1393E+00 -.5042E+00 0.1586E+01 0.7242E+01 -.4518E+00
mix (7): G =   0.010000, sum(coeff) = 0.7733E+01, coeff =  -.1393E+00 -.5042E+00 0.1586E+01 0.7242E+01 -.4518E+00
mix (6): G =   0.010000, sum(coeff) = 0.7733E+01, coeff =  -.1393E+00 -.5042E+00 0.1586E+01 0.7242E+01 -.4518E+00
mix (3): G =   0.010000, sum(coeff) = 0.7733E+01, coeff =  -.1393E+00 -.5042E+00 0.1586E+01 0.7242E+01 -.4518E+00
   scf:   11    -2270.273846    -2315.778663    -2315.857157  0.375932 -3.915164 18.870974
     spin moment: S , {S} =    0.93737   0.93737   0.00000  -0.00000
mix (6): Broyden
mix (5): Broyden
mix (1): Broyden
mix (1): n_hist = 6 / 6
mix (2): Broyden
mix (2): n_hist = 6 / 6
mix (4): Broyden
mix (4): n_hist = 6 / 6
mix (0): Broyden
mix (0): n_hist = 6 / 6
mix (6): n_hist = 6 / 6
mix (5): n_hist = 6 / 6
mix (7): Broyden
mix (7): n_hist = 6 / 6
mix (3): Broyden
mix (3): n_hist = 6 / 6
mix (4): weights =  0.1646E+01 0.1651E+01 0.1610E+01 0.1934E+01 0.1878E+01
mix (0): weights =  0.1646E+01 0.1651E+01 0.1610E+01 0.1934E+01 0.1878E+01
mix (1): weights =  0.1646E+01 0.1651E+01 0.1610E+01 0.1934E+01 0.1878E+01
mix (2): weights =  0.1646E+01 0.1651E+01 0.1610E+01 0.1934E+01 0.1878E+01
mix (6): weights =  0.1646E+01 0.1651E+01 0.1610E+01 0.1934E+01 0.1878E+01
mix (7): weights =  0.1646E+01 0.1651E+01 0.1610E+01 0.1934E+01 0.1878E+01
mix (5): weights =  0.1646E+01 0.1651E+01 0.1610E+01 0.1934E+01 0.1878E+01
mix (3): weights =  0.1646E+01 0.1651E+01 0.1610E+01 0.1934E+01 0.1878E+01
mix (5): G =   0.010000, sum(coeff) = -.1161E+02, coeff =  0.3864E-02 -.6064E+01 -.6266E+00 -.2010E+01 -.2912E+01
mix (4): G =   0.010000, sum(coeff) = -.1161E+02, coeff =  0.3864E-02 -.6064E+01 -.6266E+00 -.2010E+01 -.2912E+01
mix (2): G =   0.010000, sum(coeff) = -.1161E+02, coeff =  0.3864E-02 -.6064E+01 -.6266E+00 -.2010E+01 -.2912E+01
mix (0): G =   0.010000, sum(coeff) = -.1161E+02, coeff =  0.3864E-02 -.6064E+01 -.6266E+00 -.2010E+01 -.2912E+01
mix (1): G =   0.010000, sum(coeff) = -.1161E+02, coeff =  0.3864E-02 -.6064E+01 -.6266E+00 -.2010E+01 -.2912E+01
mix (6): G =   0.010000, sum(coeff) = -.1161E+02, coeff =  0.3864E-02 -.6064E+01 -.6266E+00 -.2010E+01 -.2912E+01
mix (7): G =   0.010000, sum(coeff) = -.1161E+02, coeff =  0.3864E-02 -.6064E+01 -.6266E+00 -.2010E+01 -.2912E+01
mix (3): G =   0.010000, sum(coeff) = -.1161E+02, coeff =  0.3864E-02 -.6064E+01 -.6266E+00 -.2010E+01 -.2912E+01
   scf:   12    -2323.066386    -2319.645096    -2319.731297  0.061892 -3.370330 13.983228
     spin moment: S , {S} =    1.04781   1.04781   0.00000   0.00000
mix (5): Broyden
mix (4): Broyden
mix (4): n_hist = 6 / 6
mix (2): Broyden
mix (2): n_hist = 6 / 6
mix (1): Broyden
mix (1): n_hist = 6 / 6
mix (6): Broyden
mix (7): Broyden
mix (7): n_hist = 6 / 6
mix (0): Broyden
mix (0): n_hist = 6 / 6
mix (5): n_hist = 6 / 6
mix (6): n_hist = 6 / 6
mix (3): Broyden
mix (3): n_hist = 6 / 6
mix (0): weights =  0.1651E+01 0.1610E+01 0.1934E+01 0.1878E+01 0.2258E+01
mix (4): weights =  0.1651E+01 0.1610E+01 0.1934E+01 0.1878E+01 0.2258E+01
mix (2): weights =  0.1651E+01 0.1610E+01 0.1934E+01 0.1878E+01 0.2258E+01
mix (1): weights =  0.1651E+01 0.1610E+01 0.1934E+01 0.1878E+01 0.2258E+01
mix (5): weights =  0.1651E+01 0.1610E+01 0.1934E+01 0.1878E+01 0.2258E+01
mix (7): weights =  0.1651E+01 0.1610E+01 0.1934E+01 0.1878E+01 0.2258E+01
mix (6): weights =  0.1651E+01 0.1610E+01 0.1934E+01 0.1878E+01 0.2258E+01
mix (3): weights =  0.1651E+01 0.1610E+01 0.1934E+01 0.1878E+01 0.2258E+01
mix (1): G =   0.010000, sum(coeff) = -.7332E+01, coeff =  -.6545E+01 0.9145E+00 -.1261E+01 -.1774E+01 0.1334E+01
mix (5): G =   0.010000, sum(coeff) = -.7332E+01, coeff =  -.6545E+01 0.9145E+00 -.1261E+01 -.1774E+01 0.1334E+01
mix (6): G =   0.010000, sum(coeff) = -.7332E+01, coeff =  -.6545E+01 0.9145E+00 -.1261E+01 -.1774E+01 0.1334E+01
mix (0): G =   0.010000, sum(coeff) = -.7332E+01, coeff =  -.6545E+01 0.9145E+00 -.1261E+01 -.1774E+01 0.1334E+01
mix (7): G =   0.010000, sum(coeff) = -.7332E+01, coeff =  -.6545E+01 0.9145E+00 -.1261E+01 -.1774E+01 0.1334E+01
mix (4): G =   0.010000, sum(coeff) = -.7332E+01, coeff =  -.6545E+01 0.9145E+00 -.1261E+01 -.1774E+01 0.1334E+01
mix (2): G =   0.010000, sum(coeff) = -.7332E+01, coeff =  -.6545E+01 0.9145E+00 -.1261E+01 -.1774E+01 0.1334E+01
mix (3): G =   0.010000, sum(coeff) = -.7332E+01, coeff =  -.6545E+01 0.9145E+00 -.1261E+01 -.1774E+01 0.1334E+01
   scf:   13    -2329.341925    -2325.749831    -2325.895719  0.092631 -3.391673  5.483067
     spin moment: S , {S} =    1.34709   1.34709   0.00000   0.00000
mix (2): Broyden
mix (2): n_hist = 6 / 6
mix (1): Broyden
mix (1): n_hist = 6 / 6
mix (5): Broyden
mix (6): Broyden
mix (4): Broyden
mix (4): n_hist = 6 / 6
mix (0): Broyden
mix (0): n_hist = 6 / 6
mix (5): n_hist = 6 / 6
mix (7): Broyden
mix (7): n_hist = 6 / 6
mix (6): n_hist = 6 / 6
mix (3): Broyden
mix (3): n_hist = 6 / 6
mix (4): weights =  0.1610E+01 0.1934E+01 0.1878E+01 0.2258E+01 0.5251E+01
mix (2): weights =  0.1610E+01 0.1934E+01 0.1878E+01 0.2258E+01 0.5251E+01
mix (1): weights =  0.1610E+01 0.1934E+01 0.1878E+01 0.2258E+01 0.5251E+01
mix (0): weights =  0.1610E+01 0.1934E+01 0.1878E+01 0.2258E+01 0.5251E+01
mix (6): weights =  0.1610E+01 0.1934E+01 0.1878E+01 0.2258E+01 0.5251E+01
mix (5): weights =  0.1610E+01 0.1934E+01 0.1878E+01 0.2258E+01 0.5251E+01
mix (7): weights =  0.1610E+01 0.1934E+01 0.1878E+01 0.2258E+01 0.5251E+01
mix (3): weights =  0.1610E+01 0.1934E+01 0.1878E+01 0.2258E+01 0.5251E+01
mix (7): G =   0.010000, sum(coeff) = 0.1811E+01, coeff =  0.3289E+01 -.4742E+00 -.9087E+00 0.3863E+00 -.4812E+00
mix (4): G =   0.010000, sum(coeff) = 0.1811E+01, coeff =  0.3289E+01 -.4742E+00 -.9087E+00 0.3863E+00 -.4812E+00
mix (2): G =   0.010000, sum(coeff) = 0.1811E+01, coeff =  0.3289E+01 -.4742E+00 -.9087E+00 0.3863E+00 -.4812E+00
mix (1): G =   0.010000, sum(coeff) = 0.1811E+01, coeff =  0.3289E+01 -.4742E+00 -.9087E+00 0.3863E+00 -.4812E+00
mix (0): G =   0.010000, sum(coeff) = 0.1811E+01, coeff =  0.3289E+01 -.4742E+00 -.9087E+00 0.3863E+00 -.4812E+00
mix (6): G =   0.010000, sum(coeff) = 0.1811E+01, coeff =  0.3289E+01 -.4742E+00 -.9087E+00 0.3863E+00 -.4812E+00
mix (5): G =   0.010000, sum(coeff) = 0.1811E+01, coeff =  0.3289E+01 -.4742E+00 -.9087E+00 0.3863E+00 -.4812E+00
mix (3): G =   0.010000, sum(coeff) = 0.1811E+01, coeff =  0.3289E+01 -.4742E+00 -.9087E+00 0.3863E+00 -.4812E+00
   scf:   14    -2322.471120    -2324.256657    -2324.383479  0.032309 -3.419455  8.468822
     spin moment: S , {S} =    1.24220   1.24220   0.00000   0.00000
mix (5): Broyden
mix (4): Broyden
mix (4): n_hist = 6 / 6
mix (2): Broyden
mix (2): n_hist = 6 / 6
mix (1): Broyden
mix (1): n_hist = 6 / 6
mix (6): Broyden
mix (0): Broyden
mix (0): n_hist = 6 / 6
mix (7): Broyden
mix (7): n_hist = 6 / 6
mix (5): n_hist = 6 / 6
mix (6): n_hist = 6 / 6
mix (3): Broyden
mix (3): n_hist = 6 / 6
mix (0): weights =  0.1934E+01 0.1878E+01 0.2258E+01 0.5251E+01 0.3373E+01
mix (4): weights =  0.1934E+01 0.1878E+01 0.2258E+01 0.5251E+01 0.3373E+01
mix (2): weights =  0.1934E+01 0.1878E+01 0.2258E+01 0.5251E+01 0.3373E+01
mix (1): weights =  0.1934E+01 0.1878E+01 0.2258E+01 0.5251E+01 0.3373E+01
mix (5): weights =  0.1934E+01 0.1878E+01 0.2258E+01 0.5251E+01 0.3373E+01
mix (7): weights =  0.1934E+01 0.1878E+01 0.2258E+01 0.5251E+01 0.3373E+01
mix (6): weights =  0.1934E+01 0.1878E+01 0.2258E+01 0.5251E+01 0.3373E+01
mix (3): weights =  0.1934E+01 0.1878E+01 0.2258E+01 0.5251E+01 0.3373E+01
mix (1): G =   0.010000, sum(coeff) = 0.3430E+02, coeff =  -.1106E+01 -.2671E+01 0.1835E-01 0.6293E+01 0.3176E+02
mix (6): G =   0.010000, sum(coeff) = 0.3430E+02, coeff =  -.1106E+01 -.2671E+01 0.1835E-01 0.6293E+01 0.3176E+02
mix (5): G =   0.010000, sum(coeff) = 0.3430E+02, coeff =  -.1106E+01 -.2671E+01 0.1835E-01 0.6293E+01 0.3176E+02
mix (0): G =   0.010000, sum(coeff) = 0.3430E+02, coeff =  -.1106E+01 -.2671E+01 0.1835E-01 0.6293E+01 0.3176E+02
mix (4): G =   0.010000, sum(coeff) = 0.3430E+02, coeff =  -.1106E+01 -.2671E+01 0.1835E-01 0.6293E+01 0.3176E+02
mix (7): G =   0.010000, sum(coeff) = 0.3430E+02, coeff =  -.1106E+01 -.2671E+01 0.1835E-01 0.6293E+01 0.3176E+02
mix (2): G =   0.010000, sum(coeff) = 0.3430E+02, coeff =  -.1106E+01 -.2671E+01 0.1835E-01 0.6293E+01 0.3176E+02
mix (3): G =   0.010000, sum(coeff) = 0.3430E+02, coeff =  -.1106E+01 -.2671E+01 0.1835E-01 0.6293E+01 0.3176E+02
   scf:   15    -2327.820241    -2326.439618    -2326.592430  0.057766 -3.331936  3.564394
     spin moment: S , {S} =    1.38420   1.38420   0.00000  -0.00000
mix (2): Broyden
mix (2): n_hist = 6 / 6
mix (1): Broyden
mix (1): n_hist = 6 / 6
mix (6): Broyden
mix (5): Broyden
mix (4): Broyden
mix (4): n_hist = 6 / 6
mix (0): Broyden
mix (0): n_hist = 6 / 6
mix (6): n_hist = 6 / 6
mix (5): n_hist = 6 / 6
mix (7): Broyden
mix (7): n_hist = 6 / 6
mix (3): Broyden
mix (3): n_hist = 6 / 6
mix (4): weights =  0.1878E+01 0.2258E+01 0.5251E+01 0.3373E+01 0.8711E+01
mix (2): weights =  0.1878E+01 0.2258E+01 0.5251E+01 0.3373E+01 0.8711E+01
mix (1): weights =  0.1878E+01 0.2258E+01 0.5251E+01 0.3373E+01 0.8711E+01
mix (0): weights =  0.1878E+01 0.2258E+01 0.5251E+01 0.3373E+01 0.8711E+01
mix (7): weights =  0.1878E+01 0.2258E+01 0.5251E+01 0.3373E+01 0.8711E+01
mix (6): weights =  0.1878E+01 0.2258E+01 0.5251E+01 0.3373E+01 0.8711E+01
mix (5): weights =  0.1878E+01 0.2258E+01 0.5251E+01 0.3373E+01 0.8711E+01
mix (3): weights =  0.1878E+01 0.2258E+01 0.5251E+01 0.3373E+01 0.8711E+01
mix (5): G =   0.010000, sum(coeff) = 0.6619E+01, coeff =  -.5386E+00 -.8074E-01 -.8093E+00 0.6172E+01 0.1875E+01
mix (4): G =   0.010000, sum(coeff) = 0.6619E+01, coeff =  -.5386E+00 -.8074E-01 -.8093E+00 0.6172E+01 0.1875E+01
mix (2): G =   0.010000, sum(coeff) = 0.6619E+01, coeff =  -.5386E+00 -.8074E-01 -.8093E+00 0.6172E+01 0.1875E+01
mix (1): G =   0.010000, sum(coeff) = 0.6619E+01, coeff =  -.5386E+00 -.8074E-01 -.8093E+00 0.6172E+01 0.1875E+01
mix (0): G =   0.010000, sum(coeff) = 0.6619E+01, coeff =  -.5386E+00 -.8074E-01 -.8093E+00 0.6172E+01 0.1875E+01
mix (7): G =   0.010000, sum(coeff) = 0.6619E+01, coeff =  -.5386E+00 -.8074E-01 -.8093E+00 0.6172E+01 0.1875E+01
mix (6): G =   0.010000, sum(coeff) = 0.6619E+01, coeff =  -.5386E+00 -.8074E-01 -.8093E+00 0.6172E+01 0.1875E+01
mix (3): G =   0.010000, sum(coeff) = 0.6619E+01, coeff =  -.5386E+00 -.8074E-01 -.8093E+00 0.6172E+01 0.1875E+01
   scf:   16    -2326.831302    -2326.994632    -2327.168412  0.051558 -3.413925  0.800861
     spin moment: S , {S} =    1.54214   1.54214   0.00000  -0.00000
mix (6): Broyden
mix (5): Broyden
mix (4): Broyden
mix (4): n_hist = 6 / 6
mix (2): Broyden
mix (2): n_hist = 6 / 6
mix (1): Broyden
mix (1): n_hist = 6 / 6
mix (0): Broyden
mix (0): n_hist = 6 / 6
mix (6): n_hist = 6 / 6
mix (5): n_hist = 6 / 6
mix (7): Broyden
mix (7): n_hist = 6 / 6
mix (3): Broyden
mix (3): n_hist = 6 / 6
mix (1): weights =  0.2258E+01 0.5251E+01 0.3373E+01 0.8711E+01 0.4761E+02
mix (0): weights =  0.2258E+01 0.5251E+01 0.3373E+01 0.8711E+01 0.4761E+02
mix (4): weights =  0.2258E+01 0.5251E+01 0.3373E+01 0.8711E+01 0.4761E+02
mix (2): weights =  0.2258E+01 0.5251E+01 0.3373E+01 0.8711E+01 0.4761E+02
mix (6): weights =  0.2258E+01 0.5251E+01 0.3373E+01 0.8711E+01 0.4761E+02
mix (7): weights =  0.2258E+01 0.5251E+01 0.3373E+01 0.8711E+01 0.4761E+02
mix (5): weights =  0.2258E+01 0.5251E+01 0.3373E+01 0.8711E+01 0.4761E+02
mix (3): weights =  0.2258E+01 0.5251E+01 0.3373E+01 0.8711E+01 0.4761E+02
mix (5): G =   0.010000, sum(coeff) = 0.4409E+01, coeff =  0.2356E+00 0.1112E+01 0.3300E+01 -.6774E+00 0.4387E+00
mix (1): G =   0.010000, sum(coeff) = 0.4409E+01, coeff =  0.2356E+00 0.1112E+01 0.3300E+01 -.6774E+00 0.4387E+00
mix (2): G =   0.010000, sum(coeff) = 0.4409E+01, coeff =  0.2356E+00 0.1112E+01 0.3300E+01 -.6774E+00 0.4387E+00
mix (0): G =   0.010000, sum(coeff) = 0.4409E+01, coeff =  0.2356E+00 0.1112E+01 0.3300E+01 -.6774E+00 0.4387E+00
mix (4): G =   0.010000, sum(coeff) = 0.4409E+01, coeff =  0.2356E+00 0.1112E+01 0.3300E+01 -.6774E+00 0.4387E+00
mix (6): G =   0.010000, sum(coeff) = 0.4409E+01, coeff =  0.2356E+00 0.1112E+01 0.3300E+01 -.6774E+00 0.4387E+00
mix (7): G =   0.010000, sum(coeff) = 0.4409E+01, coeff =  0.2356E+00 0.1112E+01 0.3300E+01 -.6774E+00 0.4387E+00
mix (3): G =   0.010000, sum(coeff) = 0.4409E+01, coeff =  0.2356E+00 0.1112E+01 0.3300E+01 -.6774E+00 0.4387E+00
   scf:   17    -2326.860575    -2326.938956    -2327.116649  0.011037 -3.501306  1.366283
     spin moment: S , {S} =    1.57088   1.57088   0.00000  -0.00000
mix (7): Broyden
mix (5): Broyden
mix (1): Broyden
mix (1): n_hist = 6 / 6
mix (3): Broyden
mix (3): n_hist = 6 / 6
mix (4): Broyden
mix (4): n_hist = 6 / 6
mix (0): Broyden
mix (0): n_hist = 6 / 6
mix (7): n_hist = 6 / 6
mix (5): n_hist = 6 / 6
mix (6): Broyden
mix (6): n_hist = 6 / 6
mix (2): Broyden
mix (2): n_hist = 6 / 6
mix (4): weights =  0.5251E+01 0.3373E+01 0.8711E+01 0.4761E+02 0.2790E+02
mix (0): weights =  0.5251E+01 0.3373E+01 0.8711E+01 0.4761E+02 0.2790E+02
mix (1): weights =  0.5251E+01 0.3373E+01 0.8711E+01 0.4761E+02 0.2790E+02
mix (3): weights =  0.5251E+01 0.3373E+01 0.8711E+01 0.4761E+02 0.2790E+02
mix (7): weights =  0.5251E+01 0.3373E+01 0.8711E+01 0.4761E+02 0.2790E+02
mix (6): weights =  0.5251E+01 0.3373E+01 0.8711E+01 0.4761E+02 0.2790E+02
mix (5): weights =  0.5251E+01 0.3373E+01 0.8711E+01 0.4761E+02 0.2790E+02
mix (2): weights =  0.5251E+01 0.3373E+01 0.8711E+01 0.4761E+02 0.2790E+02
mix (4): G =   0.010000, sum(coeff) = -.1837E+01, coeff =  -.1767E+01 -.3698E+01 0.9358E+00 -.9593E+00 0.3651E+01
mix (3): G =   0.010000, sum(coeff) = -.1837E+01, coeff =  -.1767E+01 -.3698E+01 0.9358E+00 -.9593E+00 0.3651E+01
mix (7): G =   0.010000, sum(coeff) = -.1837E+01, coeff =  -.1767E+01 -.3698E+01 0.9358E+00 -.9593E+00 0.3651E+01
mix (0): G =   0.010000, sum(coeff) = -.1837E+01, coeff =  -.1767E+01 -.3698E+01 0.9358E+00 -.9593E+00 0.3651E+01
mix (1): G =   0.010000, sum(coeff) = -.1837E+01, coeff =  -.1767E+01 -.3698E+01 0.9358E+00 -.9593E+00 0.3651E+01
mix (6): G =   0.010000, sum(coeff) = -.1837E+01, coeff =  -.1767E+01 -.3698E+01 0.9358E+00 -.9593E+00 0.3651E+01
mix (2): G =   0.010000, sum(coeff) = -.1837E+01, coeff =  -.1767E+01 -.3698E+01 0.9358E+00 -.9593E+00 0.3651E+01
mix (5): G =   0.010000, sum(coeff) = -.1837E+01, coeff =  -.1767E+01 -.3698E+01 0.9358E+00 -.9593E+00 0.3651E+01
   scf:   18    -2326.306474    -2326.843807    -2327.004530  0.040796 -3.496691  2.202865
     spin moment: S , {S} =    1.46014   1.46014   0.00000   0.00000
mix (4): Broyden
mix (4): n_hist = 6 / 6
mix (3): Broyden
mix (3): n_hist = 6 / 6
mix (7): Broyden
mix (5): Broyden
mix (1): Broyden
mix (1): n_hist = 6 / 6
mix (6): Broyden
mix (6): n_hist = 6 / 6
mix (0): Broyden
mix (0): n_hist = 6 / 6
mix (7): n_hist = 6 / 6
mix (5): n_hist = 6 / 6
mix (2): Broyden
mix (2): n_hist = 6 / 6
mix (1): weights =  0.3373E+01 0.8711E+01 0.4761E+02 0.2790E+02 0.1585E+02
mix (4): weights =  0.3373E+01 0.8711E+01 0.4761E+02 0.2790E+02 0.1585E+02
mix (3): weights =  0.3373E+01 0.8711E+01 0.4761E+02 0.2790E+02 0.1585E+02
mix (0): weights =  0.3373E+01 0.8711E+01 0.4761E+02 0.2790E+02 0.1585E+02
mix (5): weights =  0.3373E+01 0.8711E+01 0.4761E+02 0.2790E+02 0.1585E+02
mix (6): weights =  0.3373E+01 0.8711E+01 0.4761E+02 0.2790E+02 0.1585E+02
mix (7): weights =  0.3373E+01 0.8711E+01 0.4761E+02 0.2790E+02 0.1585E+02
mix (2): weights =  0.3373E+01 0.8711E+01 0.4761E+02 0.2790E+02 0.1585E+02
mix (0): G =   0.010000, sum(coeff) = 0.4848E+01, coeff =  -.8383E+01 0.1490E+01 -.1509E+01 0.5674E+01 0.7575E+01
mix (7): G =   0.010000, sum(coeff) = 0.4848E+01, coeff =  -.8383E+01 0.1490E+01 -.1509E+01 0.5674E+01 0.7575E+01
mix (5): G =   0.010000, sum(coeff) = 0.4848E+01, coeff =  -.8383E+01 0.1490E+01 -.1509E+01 0.5674E+01 0.7575E+01
mix (1): G =   0.010000, sum(coeff) = 0.4848E+01, coeff =  -.8383E+01 0.1490E+01 -.1509E+01 0.5674E+01 0.7575E+01
mix (4): G =   0.010000, sum(coeff) = 0.4848E+01, coeff =  -.8383E+01 0.1490E+01 -.1509E+01 0.5674E+01 0.7575E+01
mix (3): G =   0.010000, sum(coeff) = 0.4848E+01, coeff =  -.8383E+01 0.1490E+01 -.1509E+01 0.5674E+01 0.7575E+01
mix (6): G =   0.010000, sum(coeff) = 0.4848E+01, coeff =  -.8383E+01 0.1490E+01 -.1509E+01 0.5674E+01 0.7575E+01
mix (2): G =   0.010000, sum(coeff) = 0.4848E+01, coeff =  -.8383E+01 0.1490E+01 -.1509E+01 0.5674E+01 0.7575E+01
   scf:   19    -2325.245954    -2326.592017    -2326.776976  0.063506 -3.533188  3.335624
     spin moment: S , {S} =    1.65531   1.65531   0.00000   0.00000
mix (7): Broyden
mix (5): Broyden
mix (1): Broyden
mix (1): n_hist = 6 / 6
mix (4): Broyden
mix (4): n_hist = 6 / 6
mix (3): Broyden
mix (3): n_hist = 6 / 6
mix (6): Broyden
mix (6): n_hist = 6 / 6
mix (0): Broyden
mix (0): n_hist = 6 / 6
mix (7): n_hist = 6 / 6
mix (5): n_hist = 6 / 6
mix (2): Broyden
mix (2): n_hist = 6 / 6
mix (3): weights =  0.8711E+01 0.4761E+02 0.2790E+02 0.1585E+02 0.9453E+01
mix (0): weights =  0.8711E+01 0.4761E+02 0.2790E+02 0.1585E+02 0.9453E+01
mix (1): weights =  0.8711E+01 0.4761E+02 0.2790E+02 0.1585E+02 0.9453E+01
mix (4): weights =  0.8711E+01 0.4761E+02 0.2790E+02 0.1585E+02 0.9453E+01
mix (5): weights =  0.8711E+01 0.4761E+02 0.2790E+02 0.1585E+02 0.9453E+01
mix (6): weights =  0.8711E+01 0.4761E+02 0.2790E+02 0.1585E+02 0.9453E+01
mix (7): weights =  0.8711E+01 0.4761E+02 0.2790E+02 0.1585E+02 0.9453E+01
mix (2): weights =  0.8711E+01 0.4761E+02 0.2790E+02 0.1585E+02 0.9453E+01
mix (4): G =   0.010000, sum(coeff) = 0.1534E+01, coeff =  0.6761E-01 -.1997E+00 -.1387E+00 0.1399E+01 0.4056E+00
mix (3): G =   0.010000, sum(coeff) = 0.1534E+01, coeff =  0.6761E-01 -.1997E+00 -.1387E+00 0.1399E+01 0.4056E+00
mix (6): G =   0.010000, sum(coeff) = 0.1534E+01, coeff =  0.6761E-01 -.1997E+00 -.1387E+00 0.1399E+01 0.4056E+00
mix (0): G =   0.010000, sum(coeff) = 0.1534E+01, coeff =  0.6761E-01 -.1997E+00 -.1387E+00 0.1399E+01 0.4056E+00
mix (1): G =   0.010000, sum(coeff) = 0.1534E+01, coeff =  0.6761E-01 -.1997E+00 -.1387E+00 0.1399E+01 0.4056E+00
mix (2): G =   0.010000, sum(coeff) = 0.1534E+01, coeff =  0.6761E-01 -.1997E+00 -.1387E+00 0.1399E+01 0.4056E+00
mix (7): G =   0.010000, sum(coeff) = 0.1534E+01, coeff =  0.6761E-01 -.1997E+00 -.1387E+00 0.1399E+01 0.4056E+00
mix (5): G =   0.010000, sum(coeff) = 0.1534E+01, coeff =  0.6761E-01 -.1997E+00 -.1387E+00 0.1399E+01 0.4056E+00
   scf:   20    -2327.049655    -2327.016897    -2327.186902  0.036784 -3.503886  0.049038
     spin moment: S , {S} =    1.55987   1.55987   0.00000   0.00000
mix (1): Broyden
mix (1): n_hist = 6 / 6
mix (7): Broyden
mix (4): Broyden
mix (4): n_hist = 6 / 6
mix (3): Broyden
mix (3): n_hist = 6 / 6
mix (5): Broyden
mix (0): Broyden
mix (0): n_hist = 6 / 6
mix (7): n_hist = 6 / 6
mix (6): Broyden
mix (6): n_hist = 6 / 6
mix (5): n_hist = 6 / 6
mix (2): Broyden
mix (2): n_hist = 6 / 6
mix (1): weights =  0.4761E+02 0.2790E+02 0.1585E+02 0.9453E+01 0.1358E+03
mix (0): weights =  0.4761E+02 0.2790E+02 0.1585E+02 0.9453E+01 0.1358E+03
mix (4): weights =  0.4761E+02 0.2790E+02 0.1585E+02 0.9453E+01 0.1358E+03
mix (3): weights =  0.4761E+02 0.2790E+02 0.1585E+02 0.9453E+01 0.1358E+03
mix (5): weights =  0.4761E+02 0.2790E+02 0.1585E+02 0.9453E+01 0.1358E+03
mix (6): weights =  0.4761E+02 0.2790E+02 0.1585E+02 0.9453E+01 0.1358E+03
mix (7): weights =  0.4761E+02 0.2790E+02 0.1585E+02 0.9453E+01 0.1358E+03
mix (2): weights =  0.4761E+02 0.2790E+02 0.1585E+02 0.9453E+01 0.1358E+03
mix (3): G =   0.010000, sum(coeff) = 0.3644E-01, coeff =  0.2602E-01 0.6915E-01 -.1600E+00 -.4971E-01 0.1510E+00
mix (5): G =   0.010000, sum(coeff) = 0.3644E-01, coeff =  0.2602E-01 0.6915E-01 -.1600E+00 -.4971E-01 0.1510E+00
mix (7): G =   0.010000, sum(coeff) = 0.3644E-01, coeff =  0.2602E-01 0.6915E-01 -.1600E+00 -.4971E-01 0.1510E+00
mix (1): G =   0.010000, sum(coeff) = 0.3644E-01, coeff =  0.2602E-01 0.6915E-01 -.1600E+00 -.4971E-01 0.1510E+00
mix (0): G =   0.010000, sum(coeff) = 0.3644E-01, coeff =  0.2602E-01 0.6915E-01 -.1600E+00 -.4971E-01 0.1510E+00
mix (6): G =   0.010000, sum(coeff) = 0.3644E-01, coeff =  0.2602E-01 0.6915E-01 -.1600E+00 -.4971E-01 0.1510E+00
mix (4): G =   0.010000, sum(coeff) = 0.3644E-01, coeff =  0.2602E-01 0.6915E-01 -.1600E+00 -.4971E-01 0.1510E+00
mix (2): G =   0.010000, sum(coeff) = 0.3644E-01, coeff =  0.2602E-01 0.6915E-01 -.1600E+00 -.4971E-01 0.1510E+00
   scf:   21    -2327.017306    -2327.017126    -2327.186973  0.000438 -3.506963  0.030299
     spin moment: S , {S} =    1.55952   1.55952   0.00000   0.00000
mix (4): Broyden
mix (4): n_hist = 6 / 6
mix (3): Broyden
mix (3): n_hist = 6 / 6
mix (5): Broyden
mix (7): Broyden
mix (1): Broyden
mix (1): n_hist = 6 / 6
mix (0): Broyden
mix (0): n_hist = 6 / 6
mix (5): n_hist = 6 / 6
mix (7): n_hist = 6 / 6
mix (6): Broyden
mix (6): n_hist = 6 / 6
mix (2): Broyden
mix (2): n_hist = 6 / 6
mix (1): weights =  0.2790E+02 0.1585E+02 0.9453E+01 0.1358E+03 0.1405E+03
mix (4): weights =  0.2790E+02 0.1585E+02 0.9453E+01 0.1358E+03 0.1405E+03
mix (3): weights =  0.2790E+02 0.1585E+02 0.9453E+01 0.1358E+03 0.1405E+03
mix (0): weights =  0.2790E+02 0.1585E+02 0.9453E+01 0.1358E+03 0.1405E+03
mix (5): weights =  0.2790E+02 0.1585E+02 0.9453E+01 0.1358E+03 0.1405E+03
mix (6): weights =  0.2790E+02 0.1585E+02 0.9453E+01 0.1358E+03 0.1405E+03
mix (7): weights =  0.2790E+02 0.1585E+02 0.9453E+01 0.1358E+03 0.1405E+03
mix (2): weights =  0.2790E+02 0.1585E+02 0.9453E+01 0.1358E+03 0.1405E+03
mix (7): G =   0.010000, sum(coeff) = 0.2492E+01, coeff =  -.8844E-01 -.1478E+00 -.4389E-01 0.3412E-01 0.2738E+01
mix (1): G =   0.010000, sum(coeff) = 0.2492E+01, coeff =  -.8844E-01 -.1478E+00 -.4389E-01 0.3412E-01 0.2738E+01
mix (4): G =   0.010000, sum(coeff) = 0.2492E+01, coeff =  -.8844E-01 -.1478E+00 -.4389E-01 0.3412E-01 0.2738E+01
mix (3): G =   0.010000, sum(coeff) = 0.2492E+01, coeff =  -.8844E-01 -.1478E+00 -.4389E-01 0.3412E-01 0.2738E+01
mix (0): G =   0.010000, sum(coeff) = 0.2492E+01, coeff =  -.8844E-01 -.1478E+00 -.4389E-01 0.3412E-01 0.2738E+01
mix (5): G =   0.010000, sum(coeff) = 0.2492E+01, coeff =  -.8844E-01 -.1478E+00 -.4389E-01 0.3412E-01 0.2738E+01
mix (6): G =   0.010000, sum(coeff) = 0.2492E+01, coeff =  -.8844E-01 -.1478E+00 -.4389E-01 0.3412E-01 0.2738E+01
mix (2): G =   0.010000, sum(coeff) = 0.2492E+01, coeff =  -.8844E-01 -.1478E+00 -.4389E-01 0.3412E-01 0.2738E+01
   scf:   22    -2327.017205    -2327.017166    -2327.187046  0.000387 -3.505865  0.030224
     spin moment: S , {S} =    1.56100   1.56100   0.00000  -0.00000
mix (7): Broyden
mix (1): Broyden
mix (1): n_hist = 6 / 6
mix (4): Broyden
mix (4): n_hist = 6 / 6
mix (3): Broyden
mix (3): n_hist = 6 / 6
mix (5): Broyden
mix (6): Broyden
mix (6): n_hist = 6 / 6
mix (0): Broyden
mix (7): n_hist = 6 / 6
mix (5): n_hist = 6 / 6
mix (0): n_hist = 6 / 6
mix (2): Broyden
mix (2): n_hist = 6 / 6
mix (1): weights =  0.1585E+02 0.9453E+01 0.1358E+03 0.1405E+03 0.1405E+03
mix (4): weights =  0.1585E+02 0.9453E+01 0.1358E+03 0.1405E+03 0.1405E+03
mix (0): weights =  0.1585E+02 0.9453E+01 0.1358E+03 0.1405E+03 0.1405E+03
mix (3): weights =  0.1585E+02 0.9453E+01 0.1358E+03 0.1405E+03 0.1405E+03
mix (7): weights =  0.1585E+02 0.9453E+01 0.1358E+03 0.1405E+03 0.1405E+03
mix (6): weights =  0.1585E+02 0.9453E+01 0.1358E+03 0.1405E+03 0.1405E+03
mix (5): weights =  0.1585E+02 0.9453E+01 0.1358E+03 0.1405E+03 0.1405E+03
mix (2): weights =  0.1585E+02 0.9453E+01 0.1358E+03 0.1405E+03 0.1405E+03
mix (3): G =   0.010000, sum(coeff) = 0.2438E+00, coeff =  0.6570E-02 0.1670E-02 -.3258E-02 -.6149E-01 0.3003E+00
mix (7): G =   0.010000, sum(coeff) = 0.2438E+00, coeff =  0.6570E-02 0.1670E-02 -.3258E-02 -.6149E-01 0.3003E+00
mix (6): G =   0.010000, sum(coeff) = 0.2438E+00, coeff =  0.6570E-02 0.1670E-02 -.3258E-02 -.6149E-01 0.3003E+00
mix (5): G =   0.010000, sum(coeff) = 0.2438E+00, coeff =  0.6570E-02 0.1670E-02 -.3258E-02 -.6149E-01 0.3003E+00
mix (1): G =   0.010000, sum(coeff) = 0.2438E+00, coeff =  0.6570E-02 0.1670E-02 -.3258E-02 -.6149E-01 0.3003E+00
mix (4): G =   0.010000, sum(coeff) = 0.2438E+00, coeff =  0.6570E-02 0.1670E-02 -.3258E-02 -.6149E-01 0.3003E+00
mix (0): G =   0.010000, sum(coeff) = 0.2438E+00, coeff =  0.6570E-02 0.1670E-02 -.3258E-02 -.6149E-01 0.3003E+00
mix (2): G =   0.010000, sum(coeff) = 0.2438E+00, coeff =  0.6570E-02 0.1670E-02 -.3258E-02 -.6149E-01 0.3003E+00
   scf:   23    -2327.017116    -2327.017141    -2327.187082  0.000140 -3.505359  0.030187
     spin moment: S , {S} =    1.56209   1.56209   0.00000  -0.00000
mix (3): Broyden
mix (3): n_hist = 6 / 6
mix (7): Broyden
mix (5): Broyden
mix (1): Broyden
mix (1): n_hist = 6 / 6
mix (4): Broyden
mix (4): n_hist = 6 / 6
mix (0): Broyden
mix (0): n_hist = 6 / 6
mix (6): Broyden
mix (6): n_hist = 6 / 6
mix (7): n_hist = 6 / 6
mix (5): n_hist = 6 / 6
mix (2): Broyden
mix (2): n_hist = 6 / 6
mix (4): weights =  0.9453E+01 0.1358E+03 0.1405E+03 0.1405E+03 0.1405E+03
mix (3): weights =  0.9453E+01 0.1358E+03 0.1405E+03 0.1405E+03 0.1405E+03
mix (0): weights =  0.9453E+01 0.1358E+03 0.1405E+03 0.1405E+03 0.1405E+03
mix (1): weights =  0.9453E+01 0.1358E+03 0.1405E+03 0.1405E+03 0.1405E+03
mix (5): weights =  0.9453E+01 0.1358E+03 0.1405E+03 0.1405E+03 0.1405E+03
mix (6): weights =  0.9453E+01 0.1358E+03 0.1405E+03 0.1405E+03 0.1405E+03
mix (7): weights =  0.9453E+01 0.1358E+03 0.1405E+03 0.1405E+03 0.1405E+03
mix (2): weights =  0.9453E+01 0.1358E+03 0.1405E+03 0.1405E+03 0.1405E+03
mix (1): G =   0.010000, sum(coeff) = 0.2880E+02, coeff =  0.7252E-02 0.3854E-01 0.2895E+01 -.1174E+02 0.3761E+02
mix (7): G =   0.010000, sum(coeff) = 0.2880E+02, coeff =  0.7252E-02 0.3854E-01 0.2895E+01 -.1174E+02 0.3761E+02
mix (4): G =   0.010000, sum(coeff) = 0.2880E+02, coeff =  0.7252E-02 0.3854E-01 0.2895E+01 -.1174E+02 0.3761E+02
mix (3): G =   0.010000, sum(coeff) = 0.2880E+02, coeff =  0.7252E-02 0.3854E-01 0.2895E+01 -.1174E+02 0.3761E+02
mix (5): G =   0.010000, sum(coeff) = 0.2880E+02, coeff =  0.7252E-02 0.3854E-01 0.2895E+01 -.1174E+02 0.3761E+02
mix (6): G =   0.010000, sum(coeff) = 0.2880E+02, coeff =  0.7252E-02 0.3854E-01 0.2895E+01 -.1174E+02 0.3761E+02
mix (0): G =   0.010000, sum(coeff) = 0.2880E+02, coeff =  0.7252E-02 0.3854E-01 0.2895E+01 -.1174E+02 0.3761E+02
mix (2): G =   0.010000, sum(coeff) = 0.2880E+02, coeff =  0.7252E-02 0.3854E-01 0.2895E+01 -.1174E+02 0.3761E+02
   scf:   24    -2327.016080    -2327.016593    -2327.187533  0.002069 -3.507238  0.018629
     spin moment: S , {S} =    1.58315   1.58315   0.00000   0.00000
mix (1): Broyden
mix (1): n_hist = 6 / 6
mix (7): Broyden
mix (4): Broyden
mix (4): n_hist = 6 / 6
mix (3): Broyden
mix (3): n_hist = 6 / 6
mix (5): Broyden
mix (0): Broyden
mix (7): n_hist = 6 / 6
mix (6): Broyden
mix (6): n_hist = 6 / 6
mix (5): n_hist = 6 / 6
mix (0): n_hist = 6 / 6
mix (2): Broyden
mix (2): n_hist = 6 / 6
mix (0): weights =  0.1358E+03 0.1405E+03 0.1405E+03 0.1405E+03 0.1435E+03
mix (1): weights =  0.1358E+03 0.1405E+03 0.1405E+03 0.1405E+03 0.1435E+03
mix (4): weights =  0.1358E+03 0.1405E+03 0.1405E+03 0.1405E+03 0.1435E+03
mix (3): weights =  0.1358E+03 0.1405E+03 0.1405E+03 0.1405E+03 0.1435E+03
mix (6): weights =  0.1358E+03 0.1405E+03 0.1405E+03 0.1405E+03 0.1435E+03
mix (5): weights =  0.1358E+03 0.1405E+03 0.1405E+03 0.1405E+03 0.1435E+03
mix (7): weights =  0.1358E+03 0.1405E+03 0.1405E+03 0.1405E+03 0.1435E+03
mix (2): weights =  0.1358E+03 0.1405E+03 0.1405E+03 0.1405E+03 0.1435E+03
mix (7): G =   0.010000, sum(coeff) = -.2628E+01, coeff =  -.1419E-02 -.2780E+00 0.1179E+01 -.3866E+01 0.3381E+00
mix (3): G =   0.010000, sum(coeff) = -.2628E+01, coeff =  -.1419E-02 -.2780E+00 0.1179E+01 -.3866E+01 0.3381E+00
mix (0): G =   0.010000, sum(coeff) = -.2628E+01, coeff =  -.1419E-02 -.2780E+00 0.1179E+01 -.3866E+01 0.3381E+00
mix (6): G =   0.010000, sum(coeff) = -.2628E+01, coeff =  -.1419E-02 -.2780E+00 0.1179E+01 -.3866E+01 0.3381E+00
mix (1): G =   0.010000, sum(coeff) = -.2628E+01, coeff =  -.1419E-02 -.2780E+00 0.1179E+01 -.3866E+01 0.3381E+00
mix (4): G =   0.010000, sum(coeff) = -.2628E+01, coeff =  -.1419E-02 -.2780E+00 0.1179E+01 -.3866E+01 0.3381E+00
mix (5): G =   0.010000, sum(coeff) = -.2628E+01, coeff =  -.1419E-02 -.2780E+00 0.1179E+01 -.3866E+01 0.3381E+00
mix (2): G =   0.010000, sum(coeff) = -.2628E+01, coeff =  -.1419E-02 -.2780E+00 0.1179E+01 -.3866E+01 0.3381E+00
   scf:   25    -2327.016273    -2327.016432    -2327.187617  0.000529 -3.507634  0.015680
     spin moment: S , {S} =    1.58853   1.58853   0.00000   0.00000
mix (5): Broyden
mix (7): Broyden
mix (3): Broyden
mix (1): Broyden
mix (1): n_hist = 6 / 6
mix (4): Broyden
mix (4): n_hist = 6 / 6
mix (0): Broyden
mix (0): n_hist = 6 / 6
mix (5): n_hist = 6 / 6
mix (7): n_hist = 6 / 6
mix (6): Broyden
mix (6): n_hist = 6 / 6
mix (3): n_hist = 6 / 6
mix (2): Broyden
mix (2): n_hist = 6 / 6
mix (4): weights =  0.1405E+03 0.1405E+03 0.1405E+03 0.1435E+03 0.1442E+03
mix (0): weights =  0.1405E+03 0.1405E+03 0.1405E+03 0.1435E+03 0.1442E+03
mix (3): weights =  0.1405E+03 0.1405E+03 0.1405E+03 0.1435E+03 0.1442E+03
mix (7): weights =  0.1405E+03 0.1405E+03 0.1405E+03 0.1435E+03 0.1442E+03
mix (6): weights =  0.1405E+03 0.1405E+03 0.1405E+03 0.1435E+03 0.1442E+03
mix (1): weights =  0.1405E+03 0.1405E+03 0.1405E+03 0.1435E+03 0.1442E+03
mix (2): weights =  0.1405E+03 0.1405E+03 0.1405E+03 0.1435E+03 0.1442E+03
mix (5): weights =  0.1405E+03 0.1405E+03 0.1405E+03 0.1435E+03 0.1442E+03
mix (1): G =   0.010000, sum(coeff) = 0.4559E+02, coeff =  0.1578E+01 -.6088E+01 0.2173E+02 -.9193E+01 0.3756E+02
mix (4): G =   0.010000, sum(coeff) = 0.4559E+02, coeff =  0.1578E+01 -.6088E+01 0.2173E+02 -.9193E+01 0.3756E+02
mix (2): G =   0.010000, sum(coeff) = 0.4559E+02, coeff =  0.1578E+01 -.6088E+01 0.2173E+02 -.9193E+01 0.3756E+02
mix (0): G =   0.010000, sum(coeff) = 0.4559E+02, coeff =  0.1578E+01 -.6088E+01 0.2173E+02 -.9193E+01 0.3756E+02
mix (3): G =   0.010000, sum(coeff) = 0.4559E+02, coeff =  0.1578E+01 -.6088E+01 0.2173E+02 -.9193E+01 0.3756E+02
mix (7): G =   0.010000, sum(coeff) = 0.4559E+02, coeff =  0.1578E+01 -.6088E+01 0.2173E+02 -.9193E+01 0.3756E+02
mix (6): G =   0.010000, sum(coeff) = 0.4559E+02, coeff =  0.1578E+01 -.6088E+01 0.2173E+02 -.9193E+01 0.3756E+02
mix (5): G =   0.010000, sum(coeff) = 0.4559E+02, coeff =  0.1578E+01 -.6088E+01 0.2173E+02 -.9193E+01 0.3756E+02
   scf:   26    -2327.015258    -2327.015820    -2327.187937  0.001989 -3.505809  0.013319
     spin moment: S , {S} =    1.61245   1.61245   0.00000  -0.00004
mix (1): Broyden
mix (1): n_hist = 6 / 6
mix (4): Broyden
mix (4): n_hist = 6 / 6
mix (5): Broyden
mix (3): Broyden
mix (3): n_hist = 6 / 6
mix (7): Broyden
mix (6): Broyden
mix (6): n_hist = 6 / 6
mix (0): Broyden
mix (0): n_hist = 6 / 6
mix (5): n_hist = 6 / 6
mix (7): n_hist = 6 / 6
mix (2): Broyden
mix (2): n_hist = 6 / 6
mix (1): weights =  0.1405E+03 0.1405E+03 0.1435E+03 0.1442E+03 0.1448E+03
mix (4): weights =  0.1405E+03 0.1405E+03 0.1435E+03 0.1442E+03 0.1448E+03
mix (0): weights =  0.1405E+03 0.1405E+03 0.1435E+03 0.1442E+03 0.1448E+03
mix (3): weights =  0.1405E+03 0.1405E+03 0.1435E+03 0.1442E+03 0.1448E+03
mix (5): weights =  0.1405E+03 0.1405E+03 0.1435E+03 0.1442E+03 0.1448E+03
mix (6): weights =  0.1405E+03 0.1405E+03 0.1435E+03 0.1442E+03 0.1448E+03
mix (7): weights =  0.1405E+03 0.1405E+03 0.1435E+03 0.1442E+03 0.1448E+03
mix (2): weights =  0.1405E+03 0.1405E+03 0.1435E+03 0.1442E+03 0.1448E+03
mix (3): G =   0.010000, sum(coeff) = -.3714E+01, coeff =  -.1783E+00 0.5014E+00 0.1381E+01 -.5990E+01 0.5716E+00
mix (5): G =   0.010000, sum(coeff) = -.3714E+01, coeff =  -.1783E+00 0.5014E+00 0.1381E+01 -.5990E+01 0.5716E+00
mix (7): G =   0.010000, sum(coeff) = -.3714E+01, coeff =  -.1783E+00 0.5014E+00 0.1381E+01 -.5990E+01 0.5716E+00
mix (6): G =   0.010000, sum(coeff) = -.3714E+01, coeff =  -.1783E+00 0.5014E+00 0.1381E+01 -.5990E+01 0.5716E+00
mix (1): G =   0.010000, sum(coeff) = -.3714E+01, coeff =  -.1783E+00 0.5014E+00 0.1381E+01 -.5990E+01 0.5716E+00
mix (4): G =   0.010000, sum(coeff) = -.3714E+01, coeff =  -.1783E+00 0.5014E+00 0.1381E+01 -.5990E+01 0.5716E+00
mix (0): G =   0.010000, sum(coeff) = -.3714E+01, coeff =  -.1783E+00 0.5014E+00 0.1381E+01 -.5990E+01 0.5716E+00
mix (2): G =   0.010000, sum(coeff) = -.3714E+01, coeff =  -.1783E+00 0.5014E+00 0.1381E+01 -.5990E+01 0.5716E+00
   scf:   27    -2327.015076    -2327.015445    -2327.188037  0.000854 -3.504875  0.009947
     spin moment: S , {S} =    1.62345   1.62345   0.00000  -0.00003
mix (3): Broyden
mix (3): n_hist = 6 / 6
mix (5): Broyden
mix (7): Broyden
mix (1): Broyden
mix (1): n_hist = 6 / 6
mix (4): Broyden
mix (4): n_hist = 6 / 6
mix (0): Broyden
mix (0): n_hist = 6 / 6
mix (5): n_hist = 6 / 6
mix (6): Broyden
mix (6): n_hist = 6 / 6
mix (7): n_hist = 6 / 6
mix (2): Broyden
mix (2): n_hist = 6 / 6
mix (4): weights =  0.1405E+03 0.1435E+03 0.1442E+03 0.1448E+03 0.1457E+03
mix (3): weights =  0.1405E+03 0.1435E+03 0.1442E+03 0.1448E+03 0.1457E+03
mix (0): weights =  0.1405E+03 0.1435E+03 0.1442E+03 0.1448E+03 0.1457E+03
mix (1): weights =  0.1405E+03 0.1435E+03 0.1442E+03 0.1448E+03 0.1457E+03
mix (7): weights =  0.1405E+03 0.1435E+03 0.1442E+03 0.1448E+03 0.1457E+03
mix (5): weights =  0.1405E+03 0.1435E+03 0.1442E+03 0.1448E+03 0.1457E+03
mix (6): weights =  0.1405E+03 0.1435E+03 0.1442E+03 0.1448E+03 0.1457E+03
mix (2): weights =  0.1405E+03 0.1435E+03 0.1442E+03 0.1448E+03 0.1457E+03
mix (1): G =   0.010000, sum(coeff) = 0.4236E+01, coeff =  -.5859E+00 -.1340E+01 0.5838E+01 -.4580E+00 0.7821E+00
mix (6): G =   0.010000, sum(coeff) = 0.4236E+01, coeff =  -.5859E+00 -.1340E+01 0.5838E+01 -.4580E+00 0.7821E+00
mix (4): G =   0.010000, sum(coeff) = 0.4236E+01, coeff =  -.5859E+00 -.1340E+01 0.5838E+01 -.4580E+00 0.7821E+00
mix (3): G =   0.010000, sum(coeff) = 0.4236E+01, coeff =  -.5859E+00 -.1340E+01 0.5838E+01 -.4580E+00 0.7821E+00
mix (7): G =   0.010000, sum(coeff) = 0.4236E+01, coeff =  -.5859E+00 -.1340E+01 0.5838E+01 -.4580E+00 0.7821E+00
mix (5): G =   0.010000, sum(coeff) = 0.4236E+01, coeff =  -.5859E+00 -.1340E+01 0.5838E+01 -.4580E+00 0.7821E+00
mix (0): G =   0.010000, sum(coeff) = 0.4236E+01, coeff =  -.5859E+00 -.1340E+01 0.5838E+01 -.4580E+00 0.7821E+00
mix (2): G =   0.010000, sum(coeff) = 0.4236E+01, coeff =  -.5859E+00 -.1340E+01 0.5838E+01 -.4580E+00 0.7821E+00
   scf:   28    -2327.015426    -2327.015435    -2327.188042  0.000075 -3.505038  0.009674
     spin moment: S , {S} =    1.62412   1.62412   0.00000  -0.00000
mix (2): Broyden
mix (1): Broyden
mix (4): Broyden
mix (2): n_hist = 6 / 6
mix (6): Broyden
mix (1): n_hist = 6 / 6
mix (5): Broyden
mix (4): n_hist = 6 / 6
mix (0): Broyden
mix (5): n_hist = 6 / 6
mix (6): n_hist = 6 / 6
mix (0): n_hist = 6 / 6
mix (7): Broyden
mix (7): n_hist = 6 / 6
mix (3): Broyden
mix (3): n_hist = 6 / 6
mix (4): weights =  0.1435E+03 0.1442E+03 0.1448E+03 0.1457E+03 0.1458E+03
mix (2): weights =  0.1435E+03 0.1442E+03 0.1448E+03 0.1457E+03 0.1458E+03
mix (0): weights =  0.1435E+03 0.1442E+03 0.1448E+03 0.1457E+03 0.1458E+03
mix (1): weights =  0.1435E+03 0.1442E+03 0.1448E+03 0.1457E+03 0.1458E+03
mix (6): weights =  0.1435E+03 0.1442E+03 0.1448E+03 0.1457E+03 0.1458E+03
mix (5): weights =  0.1435E+03 0.1442E+03 0.1448E+03 0.1457E+03 0.1458E+03
mix (7): weights =  0.1435E+03 0.1442E+03 0.1448E+03 0.1457E+03 0.1458E+03
mix (3): weights =  0.1435E+03 0.1442E+03 0.1448E+03 0.1457E+03 0.1458E+03
mix (7): G =   0.010000, sum(coeff) = 0.4167E+01, coeff =  -.5672E+00 0.2457E+01 -.3975E+00 0.7268E+00 0.1949E+01
mix (1): G =   0.010000, sum(coeff) = 0.4167E+01, coeff =  -.5672E+00 0.2457E+01 -.3975E+00 0.7268E+00 0.1949E+01
mix (4): G =   0.010000, sum(coeff) = 0.4167E+01, coeff =  -.5672E+00 0.2457E+01 -.3975E+00 0.7268E+00 0.1949E+01
mix (6): G =   0.010000, sum(coeff) = 0.4167E+01, coeff =  -.5672E+00 0.2457E+01 -.3975E+00 0.7268E+00 0.1949E+01
mix (5): G =   0.010000, sum(coeff) = 0.4167E+01, coeff =  -.5672E+00 0.2457E+01 -.3975E+00 0.7268E+00 0.1949E+01
mix (2): G =   0.010000, sum(coeff) = 0.4167E+01, coeff =  -.5672E+00 0.2457E+01 -.3975E+00 0.7268E+00 0.1949E+01
mix (0): G =   0.010000, sum(coeff) = 0.4167E+01, coeff =  -.5672E+00 0.2457E+01 -.3975E+00 0.7268E+00 0.1949E+01
mix (3): G =   0.010000, sum(coeff) = 0.4167E+01, coeff =  -.5672E+00 0.2457E+01 -.3975E+00 0.7268E+00 0.1949E+01
   scf:   29    -2327.015360    -2327.015397    -2327.188050  0.000143 -3.505265  0.008849
     spin moment: S , {S} =    1.62559   1.62559   0.00000   0.00003
mix (1): Broyden
mix (1): n_hist = 6 / 6
mix (4): Broyden
mix (4): n_hist = 6 / 6
mix (6): Broyden
mix (5): Broyden
mix (2): Broyden
mix (2): n_hist = 6 / 6
mix (7): Broyden
mix (7): n_hist = 6 / 6
mix (0): Broyden
mix (0): n_hist = 6 / 6
mix (6): n_hist = 6 / 6
mix (5): n_hist = 6 / 6
mix (3): Broyden
mix (3): n_hist = 6 / 6
mix (2): weights =  0.1442E+03 0.1448E+03 0.1457E+03 0.1458E+03 0.1460E+03
mix (1): weights =  0.1442E+03 0.1448E+03 0.1457E+03 0.1458E+03 0.1460E+03
mix (4): weights =  0.1442E+03 0.1448E+03 0.1457E+03 0.1458E+03 0.1460E+03
mix (0): weights =  0.1442E+03 0.1448E+03 0.1457E+03 0.1458E+03 0.1460E+03
mix (5): weights =  0.1442E+03 0.1448E+03 0.1457E+03 0.1458E+03 0.1460E+03
mix (7): weights =  0.1442E+03 0.1448E+03 0.1457E+03 0.1458E+03 0.1460E+03
mix (6): weights =  0.1442E+03 0.1448E+03 0.1457E+03 0.1458E+03 0.1460E+03
mix (3): weights =  0.1442E+03 0.1448E+03 0.1457E+03 0.1458E+03 0.1460E+03
mix (0): G =   0.010000, sum(coeff) = -.5383E+01, coeff =  0.4039E-01 0.1071E+01 -.2165E+01 -.1103E+02 0.6705E+01
mix (6): G =   0.010000, sum(coeff) = -.5383E+01, coeff =  0.4039E-01 0.1071E+01 -.2165E+01 -.1103E+02 0.6705E+01
mix (5): G =   0.010000, sum(coeff) = -.5383E+01, coeff =  0.4039E-01 0.1071E+01 -.2165E+01 -.1103E+02 0.6705E+01
mix (2): G =   0.010000, sum(coeff) = -.5383E+01, coeff =  0.4039E-01 0.1071E+01 -.2165E+01 -.1103E+02 0.6705E+01
mix (1): G =   0.010000, sum(coeff) = -.5383E+01, coeff =  0.4039E-01 0.1071E+01 -.2165E+01 -.1103E+02 0.6705E+01
mix (4): G =   0.010000, sum(coeff) = -.5383E+01, coeff =  0.4039E-01 0.1071E+01 -.2165E+01 -.1103E+02 0.6705E+01
mix (7): G =   0.010000, sum(coeff) = -.5383E+01, coeff =  0.4039E-01 0.1071E+01 -.2165E+01 -.1103E+02 0.6705E+01
mix (3): G =   0.010000, sum(coeff) = -.5383E+01, coeff =  0.4039E-01 0.1071E+01 -.2165E+01 -.1103E+02 0.6705E+01
   scf:   30    -2327.015161    -2327.015279    -2327.188081  0.000248 -3.505012  0.008733
     spin moment: S , {S} =    1.63028   1.63028   0.00000  -0.00003
mix (6): Broyden
mix (5): Broyden
mix (2): Broyden
mix (2): n_hist = 6 / 6
mix (1): Broyden
mix (1): n_hist = 6 / 6
mix (4): Broyden
mix (4): n_hist = 6 / 6
mix (0): Broyden
mix (0): n_hist = 6 / 6
mix (7): Broyden
mix (7): n_hist = 6 / 6
mix (6): n_hist = 6 / 6
mix (5): n_hist = 6 / 6
mix (3): Broyden
mix (3): n_hist = 6 / 6
mix (0): weights =  0.1448E+03 0.1457E+03 0.1458E+03 0.1460E+03 0.1461E+03
mix (4): weights =  0.1448E+03 0.1457E+03 0.1458E+03 0.1460E+03 0.1461E+03
mix (2): weights =  0.1448E+03 0.1457E+03 0.1458E+03 0.1460E+03 0.1461E+03
mix (1): weights =  0.1448E+03 0.1457E+03 0.1458E+03 0.1460E+03 0.1461E+03
mix (5): weights =  0.1448E+03 0.1457E+03 0.1458E+03 0.1460E+03 0.1461E+03
mix (7): weights =  0.1448E+03 0.1457E+03 0.1458E+03 0.1460E+03 0.1461E+03
mix (6): weights =  0.1448E+03 0.1457E+03 0.1458E+03 0.1460E+03 0.1461E+03
mix (3): weights =  0.1448E+03 0.1457E+03 0.1458E+03 0.1460E+03 0.1461E+03
mix (6): G =   0.010000, sum(coeff) = 0.4956E+01, coeff =  -.8257E+00 0.1698E+01 0.8436E+01 -.6532E+01 0.2181E+01
mix (1): G =   0.010000, sum(coeff) = 0.4956E+01, coeff =  -.8257E+00 0.1698E+01 0.8436E+01 -.6532E+01 0.2181E+01
mix (0): G =   0.010000, sum(coeff) = 0.4956E+01, coeff =  -.8257E+00 0.1698E+01 0.8436E+01 -.6532E+01 0.2181E+01
mix (5): G =   0.010000, sum(coeff) = 0.4956E+01, coeff =  -.8257E+00 0.1698E+01 0.8436E+01 -.6532E+01 0.2181E+01
mix (7): G =   0.010000, sum(coeff) = 0.4956E+01, coeff =  -.8257E+00 0.1698E+01 0.8436E+01 -.6532E+01 0.2181E+01
mix (4): G =   0.010000, sum(coeff) = 0.4956E+01, coeff =  -.8257E+00 0.1698E+01 0.8436E+01 -.6532E+01 0.2181E+01
mix (2): G =   0.010000, sum(coeff) = 0.4956E+01, coeff =  -.8257E+00 0.1698E+01 0.8436E+01 -.6532E+01 0.2181E+01
mix (3): G =   0.010000, sum(coeff) = 0.4956E+01, coeff =  -.8257E+00 0.1698E+01 0.8436E+01 -.6532E+01 0.2181E+01
   scf:   31    -2327.015005    -2327.015141    -2327.188123  0.000241 -3.504229  0.008522
     spin moment: S , {S} =    1.63583   1.63583   0.00000  -0.00007
mix (2): Broyden
mix (2): n_hist = 6 / 6
mix (6): Broyden
mix (1): Broyden
mix (1): n_hist = 6 / 6
mix (5): Broyden
mix (5): n_hist = 6 / 6
mix (4): Broyden
mix (4): n_hist = 6 / 6
mix (0): Broyden
mix (0): n_hist = 6 / 6
mix (6): n_hist = 6 / 6
mix (7): Broyden
mix (7): n_hist = 6 / 6
mix (3): Broyden
mix (3): n_hist = 6 / 6
mix (4): weights =  0.1457E+03 0.1458E+03 0.1460E+03 0.1461E+03 0.1461E+03
mix (2): weights =  0.1457E+03 0.1458E+03 0.1460E+03 0.1461E+03 0.1461E+03
mix (0): weights =  0.1457E+03 0.1458E+03 0.1460E+03 0.1461E+03 0.1461E+03
mix (1): weights =  0.1457E+03 0.1458E+03 0.1460E+03 0.1461E+03 0.1461E+03
mix (7): weights =  0.1457E+03 0.1458E+03 0.1460E+03 0.1461E+03 0.1461E+03
mix (6): weights =  0.1457E+03 0.1458E+03 0.1460E+03 0.1461E+03 0.1461E+03
mix (5): weights =  0.1457E+03 0.1458E+03 0.1460E+03 0.1461E+03 0.1461E+03
mix (3): weights =  0.1457E+03 0.1458E+03 0.1460E+03 0.1461E+03 0.1461E+03
mix (5): G =   0.010000, sum(coeff) = 0.2401E+01, coeff =  0.1200E+00 -.2070E+01 0.2505E+01 -.3698E+01 0.5544E+01
mix (4): G =   0.010000, sum(coeff) = 0.2401E+01, coeff =  0.1200E+00 -.2070E+01 0.2505E+01 -.3698E+01 0.5544E+01
mix (2): G =   0.010000, sum(coeff) = 0.2401E+01, coeff =  0.1200E+00 -.2070E+01 0.2505E+01 -.3698E+01 0.5544E+01
mix (1): G =   0.010000, sum(coeff) = 0.2401E+01, coeff =  0.1200E+00 -.2070E+01 0.2505E+01 -.3698E+01 0.5544E+01
mix (0): G =   0.010000, sum(coeff) = 0.2401E+01, coeff =  0.1200E+00 -.2070E+01 0.2505E+01 -.3698E+01 0.5544E+01
mix (7): G =   0.010000, sum(coeff) = 0.2401E+01, coeff =  0.1200E+00 -.2070E+01 0.2505E+01 -.3698E+01 0.5544E+01
mix (6): G =   0.010000, sum(coeff) = 0.2401E+01, coeff =  0.1200E+00 -.2070E+01 0.2505E+01 -.3698E+01 0.5544E+01
mix (3): G =   0.010000, sum(coeff) = 0.2401E+01, coeff =  0.1200E+00 -.2070E+01 0.2505E+01 -.3698E+01 0.5544E+01
   scf:   32    -2327.014232    -2327.014676    -2327.188235  0.000815 -3.500915  0.007687
     spin moment: S , {S} =    1.65310   1.65310   0.00000  -0.00001
mix (6): Broyden
mix (5): Broyden
mix (4): Broyden
mix (4): n_hist = 6 / 6
mix (2): Broyden
mix (2): n_hist = 6 / 6
mix (1): Broyden
mix (1): n_hist = 6 / 6
mix (0): Broyden
mix (0): n_hist = 6 / 6
mix (6): n_hist = 6 / 6
mix (5): n_hist = 6 / 6
mix (7): Broyden
mix (7): n_hist = 6 / 6
mix (3): Broyden
mix (3): n_hist = 6 / 6
mix (1): weights =  0.1458E+03 0.1460E+03 0.1461E+03 0.1461E+03 0.1463E+03
mix (0): weights =  0.1458E+03 0.1460E+03 0.1461E+03 0.1461E+03 0.1463E+03
mix (4): weights =  0.1458E+03 0.1460E+03 0.1461E+03 0.1461E+03 0.1463E+03
mix (2): weights =  0.1458E+03 0.1460E+03 0.1461E+03 0.1461E+03 0.1463E+03
mix (6): weights =  0.1458E+03 0.1460E+03 0.1461E+03 0.1461E+03 0.1463E+03
mix (7): weights =  0.1458E+03 0.1460E+03 0.1461E+03 0.1461E+03 0.1463E+03
mix (5): weights =  0.1458E+03 0.1460E+03 0.1461E+03 0.1461E+03 0.1463E+03
mix (3): weights =  0.1458E+03 0.1460E+03 0.1461E+03 0.1461E+03 0.1463E+03
mix (5): G =   0.010000, sum(coeff) = -.5604E+00, coeff =  -.1982E+00 -.1912E+00 0.6849E+00 -.1063E+01 0.2075E+00
mix (1): G =   0.010000, sum(coeff) = -.5604E+00, coeff =  -.1982E+00 -.1912E+00 0.6849E+00 -.1063E+01 0.2075E+00
[...]
mix (5): G =   0.010000, sum(coeff) = -.1952E+01, coeff =  -.9785E+00 -.9860E+00 -.1426E+01 -.1397E+01 0.2836E+01
mix (7): G =   0.010000, sum(coeff) = -.1952E+01, coeff =  -.9785E+00 -.9860E+00 -.1426E+01 -.1397E+01 0.2836E+01
mix (0): G =   0.010000, sum(coeff) = -.1952E+01, coeff =  -.9785E+00 -.9860E+00 -.1426E+01 -.1397E+01 0.2836E+01
mix (1): G =   0.010000, sum(coeff) = -.1952E+01, coeff =  -.9785E+00 -.9860E+00 -.1426E+01 -.1397E+01 0.2836E+01
   scf:   70    -2327.014619    -2327.014639    -2327.188611  0.000655 -3.497446  0.002714
     spin moment: S , {S} =    1.74605   1.74605   0.00000  -0.00000
mix (2): Broyden
mix (4): Broyden
mix (6): Broyden
mix (2): n_hist = 6 / 6
mix (4): n_hist = 6 / 6
mix (0): Broyden
mix (6): n_hist = 6 / 6
mix (3): Broyden
mix (5): Broyden
mix (7): Broyden
mix (7): n_hist = 6 / 6
mix (0): n_hist = 6 / 6
mix (3): n_hist = 6 / 6
mix (5): n_hist = 6 / 6
mix (1): Broyden
mix (1): n_hist = 6 / 6
mix (4): weights =  0.1474E+03 0.1474E+03 0.1474E+03 0.1475E+03 0.1477E+03
mix (2): weights =  0.1474E+03 0.1474E+03 0.1474E+03 0.1475E+03 0.1477E+03
mix (0): weights =  0.1474E+03 0.1474E+03 0.1474E+03 0.1475E+03 0.1477E+03
mix (3): weights =  0.1474E+03 0.1474E+03 0.1474E+03 0.1475E+03 0.1477E+03
mix (5): weights =  0.1474E+03 0.1474E+03 0.1474E+03 0.1475E+03 0.1477E+03
mix (7): weights =  0.1474E+03 0.1474E+03 0.1474E+03 0.1475E+03 0.1477E+03
mix (6): weights =  0.1474E+03 0.1474E+03 0.1474E+03 0.1475E+03 0.1477E+03
mix (1): weights =  0.1474E+03 0.1474E+03 0.1474E+03 0.1475E+03 0.1477E+03
mix (3): G =   0.010000, sum(coeff) = 0.1627E+00, coeff =  -.1022E+00 -.1044E+00 -.1047E+00 0.1338E+00 0.3402E+00
mix (6): G =   0.010000, sum(coeff) = 0.1627E+00, coeff =  -.1022E+00 -.1044E+00 -.1047E+00 0.1338E+00 0.3402E+00
mix (4): G =   0.010000, sum(coeff) = 0.1627E+00, coeff =  -.1022E+00 -.1044E+00 -.1047E+00 0.1338E+00 0.3402E+00
mix (5): G =   0.010000, sum(coeff) = 0.1627E+00, coeff =  -.1022E+00 -.1044E+00 -.1047E+00 0.1338E+00 0.3402E+00
mix (7): G =   0.010000, sum(coeff) = 0.1627E+00, coeff =  -.1022E+00 -.1044E+00 -.1047E+00 0.1338E+00 0.3402E+00
mix (2): G =   0.010000, sum(coeff) = 0.1627E+00, coeff =  -.1022E+00 -.1044E+00 -.1047E+00 0.1338E+00 0.3402E+00
mix (0): G =   0.010000, sum(coeff) = 0.1627E+00, coeff =  -.1022E+00 -.1044E+00 -.1047E+00 0.1338E+00 0.3402E+00
mix (1): G =   0.010000, sum(coeff) = 0.1627E+00, coeff =  -.1022E+00 -.1044E+00 -.1047E+00 0.1338E+00 0.3402E+00
   scf:   71    -2327.014612    -2327.014624    -2327.188620  0.000255 -3.497458  0.002455
     spin moment: S , {S} =    1.75064   1.75064   0.00000  -0.00000
mix (6): Broyden
mix (4): Broyden
mix (4): n_hist = 6 / 6
mix (2): Broyden
mix (2): n_hist = 6 / 6
mix (0): Broyden
mix (3): Broyden
mix (3): n_hist = 6 / 6
mix (6): n_hist = 6 / 6
mix (5): Broyden
mix (5): n_hist = 6 / 6
mix (7): Broyden
mix (7): n_hist = 6 / 6
mix (0): n_hist = 6 / 6
mix (1): Broyden
mix (1): n_hist = 6 / 6
mix (0): weights =  0.1474E+03 0.1474E+03 0.1475E+03 0.1477E+03 0.1477E+03
mix (2): weights =  0.1474E+03 0.1474E+03 0.1475E+03 0.1477E+03 0.1477E+03
mix (3): weights =  0.1474E+03 0.1474E+03 0.1475E+03 0.1477E+03 0.1477E+03
mix (4): weights =  0.1474E+03 0.1474E+03 0.1475E+03 0.1477E+03 0.1477E+03
mix (7): weights =  0.1474E+03 0.1474E+03 0.1475E+03 0.1477E+03 0.1477E+03
mix (6): weights =  0.1474E+03 0.1474E+03 0.1475E+03 0.1477E+03 0.1477E+03
mix (5): weights =  0.1474E+03 0.1474E+03 0.1475E+03 0.1477E+03 0.1477E+03
mix (1): weights =  0.1474E+03 0.1474E+03 0.1475E+03 0.1477E+03 0.1477E+03
mix (4): G =   0.010000, sum(coeff) = 0.2520E+00, coeff =  -.2057E+00 -.6305E-01 0.3778E+00 -.2762E+00 0.4191E+00
mix (0): G =   0.010000, sum(coeff) = 0.2520E+00, coeff =  -.2057E+00 -.6305E-01 0.3778E+00 -.2762E+00 0.4191E+00
mix (2): G =   0.010000, sum(coeff) = 0.2520E+00, coeff =  -.2057E+00 -.6305E-01 0.3778E+00 -.2762E+00 0.4191E+00
mix (7): G =   0.010000, sum(coeff) = 0.2520E+00, coeff =  -.2057E+00 -.6305E-01 0.3778E+00 -.2762E+00 0.4191E+00
mix (6): G =   0.010000, sum(coeff) = 0.2520E+00, coeff =  -.2057E+00 -.6305E-01 0.3778E+00 -.2762E+00 0.4191E+00
mix (3): G =   0.010000, sum(coeff) = 0.2520E+00, coeff =  -.2057E+00 -.6305E-01 0.3778E+00 -.2762E+00 0.4191E+00
mix (1): G =   0.010000, sum(coeff) = 0.2520E+00, coeff =  -.2057E+00 -.6305E-01 0.3778E+00 -.2762E+00 0.4191E+00
mix (5): G =   0.010000, sum(coeff) = 0.2520E+00, coeff =  -.2057E+00 -.6305E-01 0.3778E+00 -.2762E+00 0.4191E+00
   scf:   72    -2327.014625    -2327.014625    -2327.188620  0.000028 -3.497452  0.002426
mix (1): Broyden
mix (1): n_hist = 6 / 6
mix (3): Broyden
mix (3): n_hist = 6 / 6
mix (4): Broyden
mix (4): n_hist = 6 / 6
mix (5): Broyden
mix (5): n_hist = 6 / 6
mix (2): Broyden
mix (2): n_hist = 6 / 6
mix (7): Broyden
mix (7): n_hist = 6 / 6
mix (6): Broyden
mix (6): n_hist = 6 / 6
     spin moment: S , {S} =    1.75112   1.75112   0.00000  -0.00000
mix (0): Broyden
mix (0): n_hist = 6 / 6
mix (6): weights =  0.1474E+03 0.1475E+03 0.1477E+03 0.1477E+03 0.1478E+03
mix (1): weights =  0.1474E+03 0.1475E+03 0.1477E+03 0.1477E+03 0.1478E+03
mix (3): weights =  0.1474E+03 0.1475E+03 0.1477E+03 0.1477E+03 0.1478E+03
mix (4): weights =  0.1474E+03 0.1475E+03 0.1477E+03 0.1477E+03 0.1478E+03
mix (5): weights =  0.1474E+03 0.1475E+03 0.1477E+03 0.1477E+03 0.1478E+03
mix (2): weights =  0.1474E+03 0.1475E+03 0.1477E+03 0.1477E+03 0.1478E+03
mix (7): weights =  0.1474E+03 0.1475E+03 0.1477E+03 0.1477E+03 0.1478E+03
mix (0): weights =  0.1474E+03 0.1475E+03 0.1477E+03 0.1477E+03 0.1478E+03
mix (7): G =   0.010000, sum(coeff) = 0.2251E+01, coeff =  -.4362E+00 0.1767E+00 -.3164E-01 0.7399E-01 0.2468E+01
mix (6): G =   0.010000, sum(coeff) = 0.2251E+01, coeff =  -.4362E+00 0.1767E+00 -.3164E-01 0.7399E-01 0.2468E+01
mix (1): G =   0.010000, sum(coeff) = 0.2251E+01, coeff =  -.4362E+00 0.1767E+00 -.3164E-01 0.7399E-01 0.2468E+01
mix (3): G =   0.010000, sum(coeff) = 0.2251E+01, coeff =  -.4362E+00 0.1767E+00 -.3164E-01 0.7399E-01 0.2468E+01
mix (4): G =   0.010000, sum(coeff) = 0.2251E+01, coeff =  -.4362E+00 0.1767E+00 -.3164E-01 0.7399E-01 0.2468E+01
mix (5): G =   0.010000, sum(coeff) = 0.2251E+01, coeff =  -.4362E+00 0.1767E+00 -.3164E-01 0.7399E-01 0.2468E+01
mix (2): G =   0.010000, sum(coeff) = 0.2251E+01, coeff =  -.4362E+00 0.1767E+00 -.3164E-01 0.7399E-01 0.2468E+01
mix (0): G =   0.010000, sum(coeff) = 0.2251E+01, coeff =  -.4362E+00 0.1767E+00 -.3164E-01 0.7399E-01 0.2468E+01
   scf:   73    -2327.014622    -2327.014623    -2327.188623  0.000084 -3.497447  0.002342
     spin moment: S , {S} =    1.75257   1.75257   0.00000   0.00000
mix (2): Broyden
mix (2): n_hist = 6 / 6
mix (6): Broyden
mix (1): Broyden
mix (1): n_hist = 6 / 6
mix (4): Broyden
mix (4): n_hist = 6 / 6
mix (5): Broyden
mix (0): Broyden
mix (0): n_hist = 6 / 6
mix (7): Broyden
mix (7): n_hist = 6 / 6
mix (6): n_hist = 6 / 6
mix (5): n_hist = 6 / 6
mix (3): Broyden
mix (3): n_hist = 6 / 6
mix (0): weights =  0.1475E+03 0.1477E+03 0.1477E+03 0.1478E+03 0.1478E+03
mix (2): weights =  0.1475E+03 0.1477E+03 0.1477E+03 0.1478E+03 0.1478E+03
mix (1): weights =  0.1475E+03 0.1477E+03 0.1477E+03 0.1478E+03 0.1478E+03
mix (4): weights =  0.1475E+03 0.1477E+03 0.1477E+03 0.1478E+03 0.1478E+03
mix (6): weights =  0.1475E+03 0.1477E+03 0.1477E+03 0.1478E+03 0.1478E+03
mix (7): weights =  0.1475E+03 0.1477E+03 0.1477E+03 0.1478E+03 0.1478E+03
mix (5): weights =  0.1475E+03 0.1477E+03 0.1477E+03 0.1478E+03 0.1478E+03
mix (3): weights =  0.1475E+03 0.1477E+03 0.1477E+03 0.1478E+03 0.1478E+03
mix (4): G =   0.010000, sum(coeff) = 0.5777E+01, coeff =  -.5125E+00 0.5006E+00 -.7709E+00 0.1001E+01 0.5559E+01
mix (5): G =   0.010000, sum(coeff) = 0.5777E+01, coeff =  -.5125E+00 0.5006E+00 -.7709E+00 0.1001E+01 0.5559E+01
mix (0): G =   0.010000, sum(coeff) = 0.5777E+01, coeff =  -.5125E+00 0.5006E+00 -.7709E+00 0.1001E+01 0.5559E+01
mix (6): G =   0.010000, sum(coeff) = 0.5777E+01, coeff =  -.5125E+00 0.5006E+00 -.7709E+00 0.1001E+01 0.5559E+01
mix (7): G =   0.010000, sum(coeff) = 0.5777E+01, coeff =  -.5125E+00 0.5006E+00 -.7709E+00 0.1001E+01 0.5559E+01
mix (2): G =   0.010000, sum(coeff) = 0.5777E+01, coeff =  -.5125E+00 0.5006E+00 -.7709E+00 0.1001E+01 0.5559E+01
mix (1): G =   0.010000, sum(coeff) = 0.5777E+01, coeff =  -.5125E+00 0.5006E+00 -.7709E+00 0.1001E+01 0.5559E+01
mix (3): G =   0.010000, sum(coeff) = 0.5777E+01, coeff =  -.5125E+00 0.5006E+00 -.7709E+00 0.1001E+01 0.5559E+01
   scf:   74    -2327.014608    -2327.014612    -2327.188637  0.000486 -3.497428  0.001857
     spin moment: S , {S} =    1.76096   1.76096   0.00000   0.00001
mix (1): Broyden
mix (1): n_hist = 6 / 6
mix (4): Broyden
mix (4): n_hist = 6 / 6
mix (5): Broyden
mix (6): Broyden
mix (2): Broyden
mix (2): n_hist = 6 / 6
mix (0): Broyden
mix (0): n_hist = 6 / 6
mix (5): n_hist = 6 / 6
mix (7): Broyden
mix (7): n_hist = 6 / 6
mix (6): n_hist = 6 / 6
mix (3): Broyden
mix (3): n_hist = 6 / 6
mix (2): weights =  0.1477E+03 0.1477E+03 0.1478E+03 0.1478E+03 0.1479E+03
mix (1): weights =  0.1477E+03 0.1477E+03 0.1478E+03 0.1478E+03 0.1479E+03
mix (4): weights =  0.1477E+03 0.1477E+03 0.1478E+03 0.1478E+03 0.1479E+03
mix (0): weights =  0.1477E+03 0.1477E+03 0.1478E+03 0.1478E+03 0.1479E+03
mix (6): weights =  0.1477E+03 0.1477E+03 0.1478E+03 0.1478E+03 0.1479E+03
mix (5): weights =  0.1477E+03 0.1477E+03 0.1478E+03 0.1478E+03 0.1479E+03
mix (7): weights =  0.1477E+03 0.1477E+03 0.1478E+03 0.1478E+03 0.1479E+03
mix (3): weights =  0.1477E+03 0.1477E+03 0.1478E+03 0.1478E+03 0.1479E+03
mix (7): G =   0.010000, sum(coeff) = 0.5102E-01, coeff =  0.5474E+00 -.1629E+01 -.1042E+01 -.4747E+00 0.2650E+01
mix (2): G =   0.010000, sum(coeff) = 0.5102E-01, coeff =  0.5474E+00 -.1629E+01 -.1042E+01 -.4747E+00 0.2650E+01
mix (1): G =   0.010000, sum(coeff) = 0.5102E-01, coeff =  0.5474E+00 -.1629E+01 -.1042E+01 -.4747E+00 0.2650E+01
mix (0): G =   0.010000, sum(coeff) = 0.5102E-01, coeff =  0.5474E+00 -.1629E+01 -.1042E+01 -.4747E+00 0.2650E+01
mix (4): G =   0.010000, sum(coeff) = 0.5102E-01, coeff =  0.5474E+00 -.1629E+01 -.1042E+01 -.4747E+00 0.2650E+01
mix (6): G =   0.010000, sum(coeff) = 0.5102E-01, coeff =  0.5474E+00 -.1629E+01 -.1042E+01 -.4747E+00 0.2650E+01
mix (5): G =   0.010000, sum(coeff) = 0.5102E-01, coeff =  0.5474E+00 -.1629E+01 -.1042E+01 -.4747E+00 0.2650E+01
mix (3): G =   0.010000, sum(coeff) = 0.5102E-01, coeff =  0.5474E+00 -.1629E+01 -.1042E+01 -.4747E+00 0.2650E+01
   scf:   75    -2327.014574    -2327.014571    -2327.188657  0.001164 -3.497368  0.001034
     spin moment: S , {S} =    1.78100   1.78100   0.00000   0.00001
mix (5): Broyden
mix (7): Broyden
mix (7): n_hist = 6 / 6
mix (2): Broyden
mix (2): n_hist = 6 / 6
mix (1): Broyden
mix (1): n_hist = 6 / 6
mix (3): Broyden
mix (3): n_hist = 6 / 6
mix (6): Broyden
mix (6): n_hist = 6 / 6
mix (0): Broyden
mix (0): n_hist = 6 / 6
mix (5): n_hist = 6 / 6
mix (4): Broyden
mix (4): n_hist = 6 / 6
mix (0): weights =  0.1477E+03 0.1478E+03 0.1478E+03 0.1479E+03 0.1481E+03
mix (2): weights =  0.1477E+03 0.1478E+03 0.1478E+03 0.1479E+03 0.1481E+03
mix (1): weights =  0.1477E+03 0.1478E+03 0.1478E+03 0.1479E+03 0.1481E+03
mix (3): weights =  0.1477E+03 0.1478E+03 0.1478E+03 0.1479E+03 0.1481E+03
mix (6): weights =  0.1477E+03 0.1478E+03 0.1478E+03 0.1479E+03 0.1481E+03
mix (7): weights =  0.1477E+03 0.1478E+03 0.1478E+03 0.1479E+03 0.1481E+03
mix (5): weights =  0.1477E+03 0.1478E+03 0.1478E+03 0.1479E+03 0.1481E+03
mix (4): weights =  0.1477E+03 0.1478E+03 0.1478E+03 0.1479E+03 0.1481E+03
mix (3): G =   0.010000, sum(coeff) = -.8373E+00, coeff =  -.6494E+00 -.7155E+00 -.3103E+00 0.1215E+01 -.3769E+00
mix (5): G =   0.010000, sum(coeff) = -.8373E+00, coeff =  -.6494E+00 -.7155E+00 -.3103E+00 0.1215E+01 -.3769E+00
mix (6): G =   0.010000, sum(coeff) = -.8373E+00, coeff =  -.6494E+00 -.7155E+00 -.3103E+00 0.1215E+01 -.3769E+00
mix (0): G =   0.010000, sum(coeff) = -.8373E+00, coeff =  -.6494E+00 -.7155E+00 -.3103E+00 0.1215E+01 -.3769E+00
mix (2): G =   0.010000, sum(coeff) = -.8373E+00, coeff =  -.6494E+00 -.7155E+00 -.3103E+00 0.1215E+01 -.3769E+00
mix (7): G =   0.010000, sum(coeff) = -.8373E+00, coeff =  -.6494E+00 -.7155E+00 -.3103E+00 0.1215E+01 -.3769E+00
mix (1): G =   0.010000, sum(coeff) = -.8373E+00, coeff =  -.6494E+00 -.7155E+00 -.3103E+00 0.1215E+01 -.3769E+00
mix (4): G =   0.010000, sum(coeff) = -.8373E+00, coeff =  -.6494E+00 -.7155E+00 -.3103E+00 0.1215E+01 -.3769E+00
   scf:   76    -2327.014586    -2327.014579    -2327.188657  0.000058 -3.497364  0.000760
     spin moment: S , {S} =    1.77988   1.77988   0.00000   0.00001

SCF Convergence by DM+H criterion
max |DM_out - DM_in|         :     0.0000583223
max |H_out - H_in|      (eV) :     0.0007595828
SCF cycle converged after 76 iterations
mix (1): resetting history of all mixers
mix (3): resetting history of all mixers
mix (2): resetting history of all mixers
mix (5): resetting history of all mixers
mix (6): resetting history of all mixers
mix (7): resetting history of all mixers
mix (4): resetting history of all mixers
mix (0): resetting history of all mixers

Using DM_out to compute the final energy and forces
No. of atoms with KB's overlaping orbs in proc 0. Max # of overlaps:       3      45

siesta: E_KS(eV) =            -2327.0146

siesta: E_KS - E_eggbox =     -2327.0146
     spin moment: S , {S} =    1.77988   1.77988   0.00000   0.00001

siesta: Atomic forces (eV/Ang):
----------------------------------------
   Tot   -0.000000   -0.000000    0.000001
----------------------------------------
   Max    0.055381
   Res    0.026095    sqrt( Sum f_i^2 / 3N )
----------------------------------------
   Max    0.055381    constrained

Stress tensor Voigt[x,y,z,yz,xz,xy] (kbar):        6.66        6.66       -1.58       -0.00        0.00        0.00
(Free)E + p*V (eV/cell)    -2328.2317
Target enthalpy (eV/cell)    -2327.1887

mulliken: Atomic and Orbital Populations:

Species: fe_nc               

Atom      Orb        Charge      Spin       Svec
----------------------------------------------------------------
    1  1 4s         1.33947   0.02185     -0.014   0.000  -0.017
    1  2 4s         0.10613   0.06315      0.004   0.000   0.063
    1  3 3dxy       1.22803   0.65153      0.058   0.000   0.649
    1  4 3dyz       1.24661   0.48503     -0.001   0.000   0.485
    1  5 3dz2       1.27153   0.47660      0.011   0.000   0.476
    1  6 3dxz       1.24661   0.48503     -0.001   0.000   0.485
    1  7 3dx2-y2    1.22662   0.65298      0.058   0.000   0.650
    1  8 3dxy       0.04756   0.06834      0.009   0.000   0.068
    1  9 3dyz       0.03200   0.06031      0.004   0.000   0.060
    1 10 3dz2       0.07236   0.04663      0.003   0.000   0.047
    1 11 3dxz       0.03200   0.06031      0.004   0.000   0.060
    1 12 3dx2-y2    0.04754   0.06831      0.009   0.000   0.068
    1 13 4Ppy       0.02839   0.00572      0.001   0.000  -0.006
    1 14 4Ppz       0.00640   0.00474      0.004   0.000   0.002
    1 15 4Ppx       0.02839   0.00572      0.001   0.000  -0.006
    1     Total     7.95963   3.08856      0.152   0.000   3.085

    2  1 4s         0.86587   0.01542     -0.015   0.000  -0.000
    2  2 4s         0.19007   0.03211      0.032   0.000  -0.000
    2  3 3dxy       1.43227   0.46913      0.469   0.000  -0.000
    2  4 3dyz       1.29869   0.11951      0.120   0.000  -0.000
    2  5 3dz2       1.17810   0.13301      0.133   0.000  -0.000
    2  6 3dxz       1.29869   0.11951      0.120   0.000  -0.000
    2  7 3dx2-y2    1.43195   0.46951      0.470   0.000  -0.000
    2  8 3dxy       0.00173   0.03725      0.037   0.000  -0.000
    2  9 3dyz      -0.01662   0.01897      0.019   0.000  -0.000
    2 10 3dz2       0.07437   0.00961      0.010   0.000   0.000
    2 11 3dxz      -0.01662   0.01897      0.019   0.000  -0.000
    2 12 3dx2-y2    0.00167   0.03720      0.037   0.000  -0.000
    2 13 4Ppy       0.11944   0.01152      0.012   0.000   0.000
    2 14 4Ppz       0.10169   0.00405      0.004   0.000  -0.000
    2 15 4Ppx       0.11944   0.01152      0.012   0.000   0.000
    2     Total     8.08072   1.47645      1.476   0.000  -0.000

    3  1 4s         1.33947   0.02185     -0.014   0.000   0.017
    3  2 4s         0.10613   0.06315      0.004   0.000  -0.063
    3  3 3dxy       1.22803   0.65152      0.058   0.000  -0.649
    3  4 3dyz       1.24661   0.48503     -0.001   0.000  -0.485
    3  5 3dz2       1.27153   0.47660      0.011   0.000  -0.476
    3  6 3dxz       1.24661   0.48503     -0.001   0.000  -0.485
    3  7 3dx2-y2    1.22663   0.65298      0.058   0.000  -0.650
    3  8 3dxy       0.04756   0.06834      0.009   0.000  -0.068
    3  9 3dyz       0.03200   0.06031      0.004   0.000  -0.060
    3 10 3dz2       0.07236   0.04663      0.003   0.000  -0.047
    3 11 3dxz       0.03200   0.06031      0.004   0.000  -0.060
    3 12 3dx2-y2    0.04754   0.06831      0.009   0.000  -0.068
    3 13 4Ppy       0.02839   0.00572      0.001   0.000   0.006
    3 14 4Ppz       0.00640   0.00474      0.004   0.000  -0.002
    3 15 4Ppx       0.02839   0.00572      0.001   0.000   0.006
    3     Total     7.95965   3.08855      0.152   0.000  -3.085

----------------------------------------------------------------
Total              24.00000   1.77988      1.780   0.000   0.000


siesta: Program's energy decomposition (eV):
siesta: Ebs     =      -138.241962
siesta: Eions   =      2141.484345
siesta: Ena     =        95.469235
siesta: Ekin    =      2356.544960
siesta: Enl     =     -1464.242997
siesta: Eso     =         0.000000
siesta: Edftu   =         0.000000
siesta: DEna    =       -28.366704
siesta: DUscf   =         2.904892
siesta: DUext   =         0.000000
siesta: Exc     =     -1147.839619
siesta: eta*DQ  =         0.000000
siesta: Emadel  =         0.000000
siesta: Emeta   =         0.000000
siesta: Emolmec =         0.000000
siesta: Ekinion =         0.000000
siesta: Eharris =     -2327.014586
siesta: Etot    =     -2327.014579
siesta: FreeEng =     -2327.188657

siesta: Final energy (eV):
siesta:  Band Struct. =    -138.241962
siesta:       Kinetic =    2356.544960
siesta:       Hartree =    1407.462237
siesta:       Edftu   =       0.000000
siesta:       Eso     =       0.000000
siesta:    Ext. field =       0.000000
siesta:   Exch.-corr. =   -1147.839619
siesta:  Ion-electron =   -4749.484305
siesta:       Ion-ion =    -193.697851
siesta:       Ekinion =       0.000000
siesta:         Total =   -2327.014579
siesta:         Fermi =      -3.497364

siesta: Atomic forces (eV/Ang):
siesta:      1    0.000000   -0.000000   -0.055381
siesta:      2    0.000000    0.000000    0.000053
siesta:      3   -0.000000   -0.000000    0.055329
siesta: ----------------------------------------
siesta:    Tot   -0.000000   -0.000000    0.000001

siesta: Stress tensor (static) (eV/Ang**3):
siesta:     0.004160    0.000000   -0.000000
siesta:     0.000000    0.004160    0.000000
siesta:     0.000000   -0.000000   -0.000987

siesta: Cell volume =        426.771459 Ang**3

siesta: Pressure (static):
siesta:                Solid            Molecule  Units
siesta:          -0.00002662         -0.00002480  Ry/Bohr**3
siesta:          -0.00244414         -0.00227739  eV/Ang**3
siesta:          -3.91598386         -3.64882670  kBar
(Free)E+ p_basis*V_orbitals  =       -2324.918728
(Free)Eharris+ p_basis*V_orbitals  =       -2324.918736
     spin moment: S , {S} =    1.77988   1.77988   0.00000   0.00001

cite: Please see "mix_broyden.bib" for an exhaustive BiBTeX file.
cite: Please clearly indicate Siesta version in published work: v4.1-b4-351
cite: This calculation has made use of the following articles
cite: which are encouraged to be cited in a published work.
        Primary SIESTA paper
          DOI: www.doi.org/10.1088/0953-8984/14/11/302

>> End of run:  22-JAN-2021  23:14:33
Job completed
