Siesta Version  : v4.1-b4-351
Architecture    : x86_64-linux-n-62-26-19
Compiler version: GNU Fortran (GCC) 9.3.0
Compiler flags  : mpifort -m64 -fPIC -O3 -march=native -ftree-vectorize -fexpensive-optimizatioons -funroll-loops -fprefetch-loop-arrays -fno-second-underscore  -flto
PP flags        : -I/dtu/sw/dcc/SL73/2020-aug/generic/build-tools/1.0/include -I/dtu/sw/dcc/SL773/2020-aug/generic/gcc/9.3.0/include -I/dtu/sw/dcc/SL73/2020-aug/generic/gcc/9.3.0/include -I/dtu/sw/dcc/SL73/2020-aug/XeonE5-2660v3/gnu/9.3.0/zlib/1.2.11/include -I/dtu/sw/dcc/SL73/2020-aug/generic/numactl/2.0.12/include -I/dtu/sw/dcc/SL73/2020-aug/XeonE5-2660v3/gnu/9.3.0/libxml2/2.9.10/include -I/dtu/sw/dcc/SL73/2020-aug/XeonE5-2660v3/gnu/9.3.0/hwloc/2.2.0/include -I/dtu/sw/dcc/SL73/2020-aug/XeonE5-2660v3/gnu/9.3.0/knem/1.1.4/include -I/dtu/sw/dcc/SL73/2020-aug/XeonE5-2660v3/gnu/9.3.0/ucx/1.8.1/include -I/dtu/sw/dcc/SL73/2020-aug/XeonE5-2660v3/gnu/9.3.0/openmpi/4.0.4/include -I/dtu/sw/dcc/SL73/2020-aug/XeonE5-2660v3/gnu/9.3.0/szip/2.1.1/include -I/dtu/sw/dcc/SL73/2020-aug/XeonE5-2660v3/gnu/9.3.0/hdf5/1.12.0/include -I/dtu/sw/dcc/SL73/2020-aug/XeonE5-2660v3/gnu/9.3.0/pnetcdf/1.12.1/include -I/dtu/sw/dcc/SL73/2020-aug/generic/gen-zlib/1.2.11/include -I/dtu/sw/dcc/SL73/2020-aug/generic/openssl/1.1.1/include -I/dtu/sw/dcc/SL73/2020-aug/generic/libssh2/1.8.2/include -I/dtu/sw/dcc/SL73/2020-aug/generic/curl/7.65.1/include -I/dtu/sw/dcc/SL73/2020-aug/XeonE5-2660v3/gnu/9.3.0/netcdf/4.7.4/include -I/dtu/sw/dcc/SL73/2020-aug/XeonE5-2660v3/gnu/9.3.0/flook/0.8.1/include -I/dtu/sw/dcc/SL73/2020-aug/XeonE5-2660v3/gnu/9.3.0/fftw/3.3.8/include -I/dtu/sw/dcc/SL73/2020-aug/XeonE5-2660v3/gnu/9.3.0/parmetis/4.0.3/include -I/dtu/sw/dcc/SL73/2020-aug/XeonE5-2660v3/gnu/9.3.0/scalapack/2.1.0/include -I/dtu/sw/dcc/SL73/2020-aug/XeonE5-2660v3/gnu/9.3.0/lapack/3.9.0/include -I/dtu/sw/dcc/SL73/2020-aug/XeonE5-2660v3/gnu/9.3.0/blis/0.7.0/include -I/dtu/sw/dcc/SL73/2020-aug/XeonE5-2660v3/gnu/9.3.0/scotch/6.0.9/include -I/dtu/sw/dcc/SL73/2020-aug/XeonE5-2660v3/gnu/9.3.0/mumps/5.3.3/include -I/dtu/sw/dcc/SL73/2020-aug/XeonE5-2660v3/gnu/9.3.0/elpa/2020.05.001/include -DSIESTA__ELPA -DMPI -DFC_HAVE_FLUSH -DFC_HAVE_ABORT -DCDF -DCDF4 -DSIESTA__FLOOK  -DNCDF -DNCDF_4 -DNCDF_PARALLEL -DTS_NOCHECKS -DSIESTA__METIS -DSIESTA__MUMPS -DSIESTA__MRRR -I/dtu/sw/dcc/SL73/2020-aug/XeonE5-2660v3/gnu/9.3.0/elpa/2020.05.001/include/elpa
Libraries       : libncdf.a libfdict.a -lnetcdff -lnetcdf -lpnetcdf -lhdf5_hl -lhdf5 -lz  -lzmuumps -lmumps_common -lesmumps -lscotch -lscotcherr -lpord -lparmetis -lmetis -lelpa -lscalapack -llapack -lblis  -L/dtu/sw/dcc/SL73/2020-aug/XeonE5-2660v3/gnu/9.3.0/flook/0.8.1/lib -Wl,-rpath=/dtu/sw/dcc/SL73/2020-aug/XeonE5-2660v3/gnu/9.3.0/flook/0.8.1/lib -lflookall -ldl  -flto -fuse-linker-plugin  -lmetis
PARALLEL version
NetCDF support
NetCDF-4 support
NetCDF-4 MPI-IO support
METIS ordering support
Lua support

* Running on 8 nodes in parallel
>> Start of run:  22-JAN-2021  23:14:34

                           ***********************       
                           *  WELCOME TO SIESTA  *       
                           ***********************       

reinit: Reading from ../mix_linear.fdf

reinit: -----------------------------------------------------------------------
reinit: System Name: Linear Fe3 cluster.
reinit: -----------------------------------------------------------------------
reinit: System Label: mix_linear
reinit: -----------------------------------------------------------------------
Deprecated spin keyword overridden by new-style 'Spin' input
Option from deprecated keyword: non-collinear
Option from 'Spin' keyword input: non-collinear

initatom: Reading input for the pseudopotentials and atomic orbitals ----------
Species number:   1 Atomic number:   26 Label: fe_nc

Ground state valence configuration:   4s02  3d06
Reading pseudopotential information in formatted form from fe_nc.psf

Valence configuration for pseudopotential generation:
4s( 1.00) rc: 2.00
4p( 0.00) rc: 2.00
3d( 7.00) rc: 2.00
4f( 0.00) rc: 2.00
For fe_nc, standard SIESTA heuristics set lmxkb to 3
 (one more than the basis l, including polarization orbitals).
Use PS.lmax or PS.KBprojectors blocks to override.
fe_nc: nkbl increased for l=1 due to the presence of a polarization orbital

<basis_specs>
===============================================================================
fe_nc                Z=  26    Mass=  55.850        Charge= 0.17977+309
Lmxo=2 Lmxkb= 3    BasisType=split      Semic=F
L=0  Nsemic=0  Cnfigmx=4
          i=1  nzeta=2  polorb=1  (4s)
            splnorm:   0.15000    
               vcte:    0.0000    
               rinn:    0.0000    
               qcoe:    0.0000    
               qyuk:    0.0000    
               qwid:   0.10000E-01
                rcs:    0.0000      0.0000    
            lambdas:    1.0000      1.0000    
L=1  Nsemic=0  Cnfigmx=4
L=2  Nsemic=0  Cnfigmx=3
          i=1  nzeta=2  polorb=0  (3d)
            splnorm:   0.15000    
               vcte:    0.0000    
               rinn:    0.0000    
               qcoe:    0.0000    
               qyuk:    0.0000    
               qwid:   0.10000E-01
                rcs:    0.0000      0.0000    
            lambdas:    1.0000      1.0000    
-------------------------------------------------------------------------------
L=0  Nkbl=1  erefs: 0.17977+309
L=1  Nkbl=2  erefs: 0.17977+309 0.17977+309
L=2  Nkbl=1  erefs: 0.17977+309
L=3  Nkbl=1  erefs: 0.17977+309
===============================================================================
</basis_specs>

atom: Called for fe_nc                 (Z =  26)

read_vps: Pseudopotential generation method:
read_vps: ATM3      Troullier-Martins                       
Valence charge for ps generation:    8.00000

read_vps: Pseudopotential includes a core correction:
read_vps: Pseudo-core for xc-correction

xc_check: Exchange-correlation functional:
xc_check: Ceperley-Alder
V l=0 = -2*Zval/r beyond r=  2.8345
V l=1 = -2*Zval/r beyond r=  2.8345
V l=2 = -2*Zval/r beyond r=  2.8345
V l=3 = -2*Zval/r beyond r=  2.8345
All V_l potentials equal beyond r=  1.9726
This should be close to max(r_c) in ps generation
All pots = -2*Zval/r beyond r=  2.8345
Using large-core scheme for Vlocal

atom: Estimated core radius    2.83451
atom: Maximum radius for 4*pi*r*r*local-pseudopot. charge    3.13263
atom: Maximum radius for r*vlocal+2*Zval:    2.87017
GHOST: No ghost state for L =  0
KBgen: More than one KB projector for l=  1
KBgen: ghost states analysis will be not performed
GHOST: No ghost state for L =  2
GHOST: No ghost state for L =  3

KBgen: Kleinman-Bylander projectors: 
   l= 0   rc=  2.047986   el= -0.319855   Ekb=  3.923406   kbcos=  0.252820
   l= 1   rc=  2.047986   el= -0.070931   Ekb=  3.313875   kbcos=  0.157841
   l= 1   rc=  2.047986   el=  0.001457   Ekb=  6.640675   kbcos=  0.001631
   l= 2   rc=  2.022544   el= -0.307264   Ekb=-12.478630   kbcos= -0.654791
   l= 3   rc=  2.047986   el=  0.003534   Ekb= -1.656634   kbcos= -0.005966

KBgen: Total number of  Kleinman-Bylander projectors:   19
atom: -------------------------------------------------------------------------

atom: SANKEY-TYPE ORBITALS:
atom: Selected multiple-zeta basis: split     

SPLIT: Orbitals with angular momentum L= 0

SPLIT: Basis orbitals for state 4s

SPLIT: PAO cut-off radius determined from an
SPLIT: energy shift=  0.020000 Ry

   izeta = 1
                 lambda =    1.000000
                     rc =    6.799774
                 energy =   -0.302238
                kinetic =    0.298810
    potential(screened) =   -0.601048
       potential(ionic) =   -5.818758

   izeta = 2
                 rmatch =    6.468141
              splitnorm =    0.150000
                 energy =   -0.257217
                kinetic =    0.445909
    potential(screened) =   -0.703126
       potential(ionic) =   -6.273620

SPLIT: Orbitals with angular momentum L= 2

SPLIT: Basis orbitals for state 3d

SPLIT: PAO cut-off radius determined from an
SPLIT: energy shift=  0.020000 Ry

   izeta = 1
                 lambda =    1.000000
                     rc =    4.022404
                 energy =   -0.287031
                kinetic =    8.952870
    potential(screened) =   -9.239901
       potential(ionic) =  -18.247427

   izeta = 2
                 rmatch =    2.291856
              splitnorm =    0.150000
                 energy =    0.070417
                kinetic =   12.282791
    potential(screened) =  -12.212374
       potential(ionic) =  -21.929746

POLgen: Perturbative polarization orbital with L=  1

POLgen: Polarization orbital for state 4s

   izeta = 1
                     rc =    6.799774
                 energy =   -0.003154
                kinetic =    0.566601
    potential(screened) =   -0.569755
       potential(ionic) =   -5.393577
atom: Total number of Sankey-type orbitals: 15

atm_pop: Valence configuration (for local Pseudopot. screening):
 4s( 2.00)                                                            
 4p( 0.00)                                                            
 3d( 6.00)                                                            
Vna: chval, zval:    8.00000   8.00000

Vna:  Cut-off radius for the neutral-atom potential:   6.799774
comcore: Pseudo-core radius Rcore=  3.874354

atom: _________________________________________________________________________

prinput: Basis input ----------------------------------------------------------

PAO.BasisType split     

%block ChemicalSpeciesLabel
    1   26 fe_nc                   # Species index, atomic number, species label
%endblock ChemicalSpeciesLabel

%block PAO.Basis                 # Define Basis set
fe_nc                 2                    # Species label, number of l-shells
 n=4   0   2 P   1                   # n, l, Nzeta, Polarization, NzetaPol
   6.800      6.468   
   1.000      1.000   
 n=3   2   2                         # n, l, Nzeta 
   4.022      2.292   
   1.000      1.000   
%endblock PAO.Basis

prinput: ----------------------------------------------------------------------

Dumping basis to NetCDF file fe_nc.ion.nc
coor:   Atomic-coordinates input format  =     Cartesian coordinates
coor:                                            (in Bohr units)

siesta: Atomic coordinates (Bohr) and species
siesta:      0.00000   0.00000   3.64400  1        1
siesta:      0.00000   0.00000   0.00000  1        2
siesta:      0.00000   0.00000  -3.64400  1        3

siesta: System type = bulk      

initatomlists: Number of atoms, orbitals, and projectors:      3    45    57

siesta: ******************** Simulation parameters ****************************
siesta:
siesta: The following are some of the parameters of the simulation.
siesta: A complete list of the parameters used, including default values,
siesta: can be found in file out.fdf
siesta:
redata: Spin configuration                          = non-collinear
redata: Number of spin components                   = 4
redata: Time-Reversal Symmetry                      = F
redata: Spin spiral                                 = F
redata: Long output                                 =   F
redata: Number of Atomic Species                    =        1
redata: Charge density info will appear in .RHO file
redata: Write Mulliken Pop.                         = Atomic and Orbital charges
redata: Matel table size (NRTAB)                    =     1024
redata: Mesh Cutoff                                 =   150.0000 Ry
redata: Net charge of the system                    =     0.0000 |e|
redata: Min. number of SCF Iter                     =        0
redata: Max. number of SCF Iter                     =     2000
redata: SCF convergence failure will abort job
redata: SCF mix quantity                            = Hamiltonian
redata: Mix DM or H after convergence               =   F
redata: Recompute H after scf cycle                 =   F
redata: Mix DM in first SCF step                    =   T
redata: Write Pulay info on disk                    =   F
redata: New DM Occupancy tolerance                  = 0.000000000001
redata: No kicks to SCF
redata: DM Mixing Weight for Kicks                  =     0.5000
redata: Require Harris convergence for SCF          =   F
redata: Harris energy tolerance for SCF             =     0.000100 eV
redata: Require DM convergence for SCF              =   T
redata: DM tolerance for SCF                        =     0.000100
redata: Require EDM convergence for SCF             =   F
redata: EDM tolerance for SCF                       =     0.001000 eV
redata: Require H convergence for SCF               =   T
redata: Hamiltonian tolerance for SCF               =     0.001000 eV
redata: Require (free) Energy convergence for SCF   =   F
redata: (free) Energy tolerance for SCF             =     0.000100 eV
redata: Using Saved Data (generic)                  =   F
redata: Use continuation files for DM               =   T
redata: Neglect nonoverlap interactions             =   F
redata: Method of Calculation                       = Diagonalization
redata: Electronic Temperature                      =  1160.4438 K
redata: Fix the spin of the system                  =   F
redata: Dynamics option                             = Single-point calculation
mix.SCF: Linear mixing                           = linear-1
mix.SCF:    Mixing weight                        =     0.010000
mix.SCF:    Number of mixing iterations          = 200
mix.SCF:    Following mixer                      = linear-2
mix.SCF: Linear mixing                           = linear-2
mix.SCF:    Mixing weight                        =     0.020000
mix.SCF:    Number of mixing iterations          = 100
mix.SCF:    Following mixer                      = linear-3
mix.SCF: Linear mixing                           = linear-3
mix.SCF:    Mixing weight                        =     0.030000
mix.SCF: Spin-component mixing                   all
redata: Save all siesta data in one NC              =   F
redata: ***********************************************************************

%block SCF.Mixers
  linear-1
  linear-2
  linear-3
%endblock SCF.Mixers

%block SCF.Mixer.linear-1
  # Mixing method
  method linear

  # Mixing options
  weight 0.0100

  # Continuation options
  iterations 200
  next linear-2
%endblock SCF.Mixer.linear-1

%block SCF.Mixer.linear-2
  # Mixing method
  method linear

  # Mixing options
  weight 0.0200

  # Continuation options
  iterations 100
  next linear-3
%endblock SCF.Mixer.linear-2

%block SCF.Mixer.linear-3
  # Mixing method
  method linear

  # Mixing options
  weight 0.0300
%endblock SCF.Mixer.linear-3

DM_history_depth set to one: no extrapolation allowed by default for geometry relaxation
Size of DM history Fstack: 1
Total number of electrons:    24.000000
Total ionic charge:    24.000000

* ProcessorY, Blocksize:    2   6


* Orbital distribution balance (max,min):     6     3


Time-reversal symmetry not used.

siesta: k-grid: Number of k-points =     1
siesta: k-grid: Cutoff (effective) =     3.175 Ang
siesta: k-grid: Supercell and displacements
siesta: k-grid:    1   0   0      0.000
siesta: k-grid:    0   1   0      0.000
siesta: k-grid:    0   0   1      0.000

diag: Algorithm                                     = D&C
diag: Parallel over k                               =   F
diag: Use parallel 2D distribution                  =   T
diag: Parallel block-size                           = 6
diag: Parallel distribution                         =     2 x     4
diag: Used triangular part                          = Lower
diag: Absolute tolerance                            =  0.100E-15
diag: Orthogonalization factor                      =  0.100E-05
diag: Memory factor                                 =  1.0000


ts: **************************************************************
ts: Save H and S matrices                           =    F
ts: Save DM and EDM matrices                        =    F
ts: Only save the overlap matrix S                  =    F
ts: **************************************************************

************************ Begin: TS CHECKS AND WARNINGS ************************
************************ End: TS CHECKS AND WARNINGS **************************


                     ====================================
                        Single-point calculation
                     ====================================

outcell: Unit cell vectors (Ang):
        6.350124    0.000000    0.000000
        0.000000    6.350124    0.000000
        0.000000    0.000000   10.583540

outcell: Cell vector modules (Ang)   :    6.350124    6.350124   10.583540
outcell: Cell angles (23,13,12) (deg):     90.0000     90.0000     90.0000
outcell: Cell volume (Ang**3)        :    426.7715
Gamma-point calculation with interaction between periodic images
Some features might not work optimally:
e.g. DM initialization from atomic data
<dSpData1D:S at geom step 0
  <sparsity:sparsity for geom step 0
    nrows_g=45 nrows=6 sparsity=.1333 nnzs=270, refcount: 7>
  <dData1D:(new from dSpData1D) n=270, refcount: 1>
refcount: 1>
new_DM -- step:     1
Initializing Density Matrix...

Attempting to read DM from file... Failed...
DM filled with atomic data (user-defined):
<dSpData2D:DM initialized from atoms
  <sparsity:sparsity for geom step 0
    nrows_g=45 nrows=6 sparsity=.1333 nnzs=270, refcount: 8>
  <dData2D:DM n=270 m=4, refcount: 1>
refcount: 1>
     spin moment: S , {S} =    1.50000   1.50000   0.00000   0.00000
No. of atoms with KB's overlaping orbs in proc 0. Max # of overlaps:       3      45
New grid distribution:   1
           1       1:   24    1:   12    1:   10
           2       1:   24    1:   12   11:   20
           3       1:   24    1:   12   21:   30
           4       1:   24    1:   12   31:   40
           5       1:   24   13:   24    1:   10
           6       1:   24   13:   24   11:   20
           7       1:   24   13:   24   21:   30
           8       1:   24   13:   24   31:   40

InitMesh: MESH =    48 x    48 x    80 =      184320
InitMesh: (bp) =    24 x    24 x    40 =       23040
InitMesh: Mesh cutoff (required, used) =   150.000   157.914 Ry
ExtMesh (bp) on 0 =    80 x    68 x    66 =      359040
New grid distribution:   2
           1      12:   24    1:   11    1:   15
           2       1:   11    1:   11    1:   15
           3      12:   24    1:   11   16:   40
           4       1:   11    1:   11   16:   40
           5      12:   24   12:   24    1:   15
           6       1:   11   12:   24    1:   15
           7      12:   24   12:   24   16:   40
           8       1:   11   12:   24   16:   40
New grid distribution:   3
           1       1:   12   13:   24   20:   40
           2      13:   24    1:   12    1:   19
           3      13:   24    1:   12   20:   40
           4      13:   24   13:   24    1:   19
           5       1:   12    1:   12   20:   40
           6       1:   12    1:   12    1:   19
           7      13:   24   13:   24   20:   40
           8       1:   12   13:   24    1:   19
Setting up quadratic distribution...
ExtMesh (bp) on 0 =    69 x    67 x    71 =      328233
PhiOnMesh: Number of (b)points on node 0 =                 2145
PhiOnMesh: nlist on node 0 =                25197

stepf: Fermi-Dirac step function

siesta: Program's energy decomposition (eV):
siesta: Ebs     =       296.552197
siesta: Eions   =      2141.484345
siesta: Ena     =        95.469235
siesta: Ekin    =      2894.135049
siesta: Enl     =     -1845.643791
siesta: Eso     =         0.000000
siesta: Edftu   =         0.000000
siesta: DEna    =      -119.991632
siesta: DUscf   =        64.250494
siesta: DUext   =         0.000000
siesta: Exc     =     -1226.471890
siesta: eta*DQ  =         0.000000
siesta: Emadel  =         0.000000
siesta: Emeta   =         0.000000
siesta: Emolmec =         0.000000
siesta: Ekinion =         0.000000
siesta: Eharris =     -2188.621529
siesta: Etot    =     -2279.736880
siesta: FreeEng =     -2280.290972

        iscf     Eharris(eV)        E_KS(eV)     FreeEng(eV)     dDmax    Ef(eV) dHmax(eV)
   scf:    1    -2188.621529    -2279.736880    -2280.290972  0.981529 -7.983581 45.033840
     spin moment: S , {S} =    1.52577   1.52577   0.00000  -0.00000
timer: Routine,Calls,Time,% = IterSCF        1       0.102   7.41
   scf:    2    -2292.402970    -2286.252687    -2286.801094  0.043504 -7.833504 41.185476
     spin moment: S , {S} =    1.58342   1.58342   0.00000   0.00000
   scf:    3    -2297.587454    -2292.086088    -2292.625691  0.033123 -7.684543 37.445086
     spin moment: S , {S} =    1.58308   1.58308   0.00000   0.00000
   scf:    4    -2302.289718    -2297.345813    -2297.871921  0.024413 -7.537386 33.747762
     spin moment: S , {S} =    1.54955   1.54955   0.00000   0.00000
   scf:    5    -2306.431778    -2302.046515    -2302.552677  0.020280 -7.392361 30.031826
     spin moment: S , {S} =    1.50907   1.50907   0.00000   0.00000
   scf:    6    -2309.703078    -2306.030137    -2306.509519  0.021392 -7.249213 26.347102
     spin moment: S , {S} =    1.48309   1.48309   0.00000   0.00000
   scf:    7    -2311.805429    -2309.049408    -2309.497766  0.023436 -7.107384 22.959713
     spin moment: S , {S} =    1.47807   1.47807   0.00000   0.00000
   scf:    8    -2312.888783    -2311.054972    -2311.473455  0.020955 -6.966454 20.204882
     spin moment: S , {S} =    1.48659   1.48659   0.00000   0.00000
   scf:    9    -2313.424677    -2312.282994    -2312.677586  0.015537 -6.826408 18.207031
     spin moment: S , {S} =    1.49917   1.49917   0.00000   0.00000
   scf:   10    -2313.770406    -2313.044876    -2313.423036  0.010188 -6.687606 16.850353
     spin moment: S , {S} =    1.51050   1.51050   0.00000   0.00000
   scf:   11    -2314.071221    -2313.565182    -2313.933144  0.007217 -6.550528 16.183085
     spin moment: S , {S} =    1.51880   1.51880   0.00000   0.00000
   scf:   12    -2314.363407    -2313.967211    -2314.329230  0.005778 -6.415548 15.987326
     spin moment: S , {S} =    1.52416   1.52416   0.00000   0.00000
   scf:   13    -2314.651127    -2314.310626    -2314.669327  0.005718 -6.282886 15.755847
     spin moment: S , {S} =    1.52734   1.52734   0.00000   0.00000
   scf:   14    -2314.933188    -2314.622848    -2314.979793  0.005675 -6.152647 15.503948
     spin moment: S , {S} =    1.52917   1.52917   0.00000   0.00000
   scf:   15    -2315.209167    -2314.916764    -2315.272913  0.005620 -6.024874 15.241189
     spin moment: S , {S} =    1.53028   1.53028   0.00000   0.00000
   scf:   16    -2315.480079    -2315.199110    -2315.555131  0.005559 -5.899584 14.972905
     spin moment: S , {S} =    1.53110   1.53110   0.00000   0.00000
   scf:   17    -2315.748736    -2315.474595    -2315.831085  0.005494 -5.776790 14.701320
     spin moment: S , {S} =    1.53191   1.53191   0.00000   0.00000
   scf:   18    -2316.020926    -2315.748449    -2316.106125  0.005425 -5.656532 14.425916
     spin moment: S , {S} =    1.53286   1.53286   0.00000   0.00000
   scf:   19    -2316.307983    -2316.028971    -2316.388879  0.005352 -5.538912 14.142832
     spin moment: S , {S} =    1.53407   1.53407   0.00000   0.00000
   scf:   20    -2316.631359    -2316.331086    -2316.694846  0.005275 -5.424156 13.843030
     spin moment: S , {S} =    1.53564   1.53564   0.00000   0.00000
   scf:   21    -2317.028996    -2316.681347    -2317.051387  0.005188 -5.312719 13.509021
     spin moment: S , {S} =    1.53772   1.53772   0.00000   0.00000
   scf:   22    -2317.559261    -2317.122519    -2317.502079  0.006623 -5.205427 13.111170
     spin moment: S , {S} =    1.54055   1.54055   0.00000   0.00000
   scf:   23    -2318.288425    -2317.709593    -2318.102075  0.010677 -5.103570 12.608248
     spin moment: S , {S} =    1.54443   1.54443   0.00000   0.00000
   scf:   24    -2319.245556    -2318.485341    -2318.892686  0.017184 -5.008777 11.960905
     spin moment: S , {S} =    1.54942   1.54942   0.00000   0.00000
   scf:   25    -2320.366159    -2319.438741    -2319.859554  0.024626 -4.922518 11.159142
     spin moment: S , {S} =    1.55494   1.55494   0.00000   0.00000
   scf:   26    -2321.504140    -2320.489464    -2320.918604  0.030994 -4.845523 10.294764
     spin moment: S , {S} =    1.55979   1.55979   0.00000   0.00000
   scf:   27    -2322.523530    -2321.527025    -2321.957277  0.034688 -4.777588  9.404843
     spin moment: S , {S} =    1.56282   1.56282   0.00000   0.00000
   scf:   28    -2323.364128    -2322.465514    -2322.889913  0.035449 -4.717842  8.538770
     spin moment: S , {S} =    1.56362   1.56362   0.00000   0.00000
   scf:   29    -2324.030085    -2323.265135    -2323.678418  0.034022 -4.665139  7.739347
     spin moment: S , {S} =    1.56252   1.56252   0.00000   0.00000
   scf:   30    -2324.551770    -2323.922501    -2324.321434  0.031377 -4.618329  7.025475
     spin moment: S , {S} =    1.56013   1.56013   0.00000   0.00000
   scf:   31    -2324.961770    -2324.453070    -2324.836130  0.028271 -4.576391  6.399265
     spin moment: S , {S} =    1.55705   1.55705   0.00000   0.00000
   scf:   32    -2325.286825    -2324.878288    -2325.245152  0.025156 -4.538469  5.854008
     spin moment: S , {S} =    1.55371   1.55371   0.00000   0.00000
   scf:   33    -2325.547133    -2325.219020    -2325.570116  0.022257 -4.503870  5.379688
     spin moment: S , {S} =    1.55037   1.55037   0.00000   0.00000
   scf:   34    -2325.757642    -2325.493099    -2325.829269  0.019659 -4.472038  4.965970
     spin moment: S , {S} =    1.54718   1.54718   0.00000   0.00000
   scf:   35    -2325.929442    -2325.714884    -2326.037170  0.017375 -4.442532  4.603497
     spin moment: S , {S} =    1.54422   1.54422   0.00000   0.00000
   scf:   36    -2326.070846    -2325.895617    -2326.205126  0.015387 -4.415001  4.284287
     spin moment: S , {S} =    1.54152   1.54152   0.00000   0.00000
   scf:   37    -2326.188153    -2326.043994    -2326.341820  0.013661 -4.389165  4.001711
     spin moment: S , {S} =    1.53908   1.53908   0.00000   0.00000
   scf:   38    -2326.286192    -2326.166720    -2326.453906  0.012165 -4.364799  3.750315
     spin moment: S , {S} =    1.53690   1.53690   0.00000   0.00000
   scf:   39    -2326.368699    -2326.268973    -2326.546492  0.010867 -4.341720  3.525618
     spin moment: S , {S} =    1.53497   1.53497   0.00000   0.00000
   scf:   40    -2326.438594    -2326.354772    -2326.623516  0.009737 -4.319779  3.323915
     spin moment: S , {S} =    1.53325   1.53325   0.00000   0.00000
   scf:   41    -2326.498177    -2326.427253    -2326.688037  0.008753 -4.298856  3.142125
     spin moment: S , {S} =    1.53175   1.53175   0.00000   0.00000
   scf:   42    -2326.549273    -2326.488881    -2326.742445  0.007893 -4.278847  2.977663
     spin moment: S , {S} =    1.53044   1.53044   0.00000   0.00000
   scf:   43    -2326.593344    -2326.541605    -2326.788618  0.007140 -4.259669  2.828343
     spin moment: S , {S} =    1.52930   1.52930   0.00000   0.00000
   scf:   44    -2326.631563    -2326.586980    -2326.828047  0.006480 -4.241248  2.692305
     spin moment: S , {S} =    1.52832   1.52832   0.00000   0.00000
   scf:   45    -2326.664882    -2326.626252    -2326.861917  0.005899 -4.223525  2.567955
     spin moment: S , {S} =    1.52749   1.52749   0.00000   0.00000
   scf:   46    -2326.694076    -2326.660425    -2326.891181  0.005388 -4.206446  2.453921
     spin moment: S , {S} =    1.52679   1.52679   0.00000   0.00000
   scf:   47    -2326.719779    -2326.690317    -2326.916606  0.004936 -4.189965  2.349309
     spin moment: S , {S} =    1.52620   1.52620   0.00000   0.00000
   scf:   48    -2326.742514    -2326.716593    -2326.938816  0.004536 -4.174042  2.256647
     spin moment: S , {S} =    1.52572   1.52572   0.00000   0.00000
   scf:   49    -2326.762714    -2326.739800    -2326.958318  0.004182 -4.158643  2.170797
     spin moment: S , {S} =    1.52534   1.52534   0.00000   0.00000
   scf:   50    -2326.780737    -2326.760392    -2326.975528  0.003866 -4.143736  2.091025
     spin moment: S , {S} =    1.52504   1.52504   0.00000   0.00000
   scf:   51    -2326.796883    -2326.778741    -2326.990791  0.003585 -4.129292  2.016687
     spin moment: S , {S} =    1.52482   1.52482   0.00000   0.00000
   scf:   52    -2326.811404    -2326.795160    -2327.004388  0.003335 -4.115287  1.947221
     spin moment: S , {S} =    1.52467   1.52467   0.00000   0.00000
   scf:   53    -2326.824512    -2326.809911    -2327.016556  0.003110 -4.101699  1.882135
     spin moment: S , {S} =    1.52458   1.52458   0.00000   0.00000
   scf:   54    -2326.836386    -2326.823212    -2327.027491  0.002908 -4.088506  1.820996
     spin moment: S , {S} =    1.52455   1.52455   0.00000   0.00000
   scf:   55    -2326.847179    -2326.835251    -2327.037359  0.002726 -4.075691  1.763422
     spin moment: S , {S} =    1.52457   1.52457   0.00000   0.00000
   scf:   56    -2326.857020    -2326.846183    -2327.046299  0.002562 -4.063235  1.709078
     spin moment: S , {S} =    1.52463   1.52463   0.00000   0.00000
   scf:   57    -2326.866021    -2326.856144    -2327.054427  0.002414 -4.051123  1.657668
     spin moment: S , {S} =    1.52474   1.52474   0.00000   0.00000
   scf:   58    -2326.874277    -2326.865247    -2327.061843  0.002280 -4.039340  1.608930
     spin moment: S , {S} =    1.52489   1.52489   0.00000   0.00000
   scf:   59    -2326.881870    -2326.873591    -2327.068632  0.002157 -4.027872  1.562633
     spin moment: S , {S} =    1.52506   1.52506   0.00000   0.00000
   scf:   60    -2326.888872    -2326.881260    -2327.074867  0.002046 -4.016708  1.518571
     spin moment: S , {S} =    1.52527   1.52527   0.00000   0.00000
   scf:   61    -2326.895345    -2326.888327    -2327.080610  0.001944 -4.005836  1.476560
     spin moment: S , {S} =    1.52550   1.52550   0.00000   0.00000
   scf:   62    -2326.901342    -2326.894857    -2327.085915  0.001850 -3.995243  1.436438
     spin moment: S , {S} =    1.52576   1.52576   0.00000   0.00000
   scf:   63    -2326.906911    -2326.900904    -2327.090827  0.001764 -3.984921  1.398060
     spin moment: S , {S} =    1.52605   1.52605   0.00000   0.00000
   scf:   64    -2326.912092    -2326.906516    -2327.095388  0.001685 -3.974860  1.361294
     spin moment: S , {S} =    1.52635   1.52635   0.00000   0.00000
   scf:   65    -2326.916924    -2326.911736    -2327.099633  0.001611 -3.965049  1.326026
     spin moment: S , {S} =    1.52667   1.52667   0.00000   0.00000
   scf:   66    -2326.921436    -2326.916601    -2327.103592  0.001544 -3.955482  1.292149
     spin moment: S , {S} =    1.52701   1.52701   0.00000   0.00000
   scf:   67    -2326.925659    -2326.921144    -2327.107291  0.001481 -3.946149  1.259570
     spin moment: S , {S} =    1.52736   1.52736   0.00000   0.00000
   scf:   68    -2326.929616    -2326.925392    -2327.110755  0.001422 -3.937043  1.228204
     spin moment: S , {S} =    1.52772   1.52772   0.00000   0.00000
   scf:   69    -2326.933332    -2326.929373    -2327.114005  0.001367 -3.928157  1.197973
     spin moment: S , {S} =    1.52810   1.52810   0.00000   0.00000
   scf:   70    -2326.936824    -2326.933109    -2327.117059  0.001316 -3.919484  1.168808
     spin moment: S , {S} =    1.52849   1.52849   0.00000   0.00000
   scf:   71    -2326.940113    -2326.936620    -2327.119934  0.001269 -3.911017  1.140646
     spin moment: S , {S} =    1.52889   1.52889   0.00000   0.00000
   scf:   72    -2326.943212    -2326.939925    -2327.122643  0.001224 -3.902750  1.113429
     spin moment: S , {S} =    1.52930   1.52930   0.00000   0.00000
   scf:   73    -2326.946138    -2326.943040    -2327.125201  0.001181 -3.894677  1.087104
     spin moment: S , {S} =    1.52972   1.52972   0.00000   0.00000
   scf:   74    -2326.948903    -2326.945979    -2327.127619  0.001142 -3.886792  1.061623
     spin moment: S , {S} =    1.53015   1.53015   0.00000   0.00000
   scf:   75    -2326.951519    -2326.948756    -2327.129907  0.001104 -3.879090  1.036943
     spin moment: S , {S} =    1.53058   1.53058   0.00000   0.00000
   scf:   76    -2326.953996    -2326.951382    -2327.132075  0.001068 -3.871565  1.013022
     spin moment: S , {S} =    1.53102   1.53102   0.00000   0.00000
   scf:   77    -2326.956345    -2326.953870    -2327.134132  0.001035 -3.864213  0.989824
     spin moment: S , {S} =    1.53147   1.53147   0.00000   0.00000
   scf:   78    -2326.958574    -2326.956227    -2327.136085  0.001003 -3.857029  0.967313
     spin moment: S , {S} =    1.53192   1.53192   0.00000   0.00000
   scf:   79    -2326.960691    -2326.958464    -2327.137941  0.000972 -3.850008  0.945459
     spin moment: S , {S} =    1.53237   1.53237   0.00000   0.00000
   scf:   80    -2326.962703    -2326.960589    -2327.139707  0.000946 -3.843146  0.924231
     spin moment: S , {S} =    1.53283   1.53283   0.00000   0.00000
   scf:   81    -2326.964618    -2326.962608    -2327.141389  0.000924 -3.836438  0.903603
     spin moment: S , {S} =    1.53330   1.53330   0.00000   0.00000
   scf:   82    -2326.966441    -2326.964529    -2327.142992  0.000903 -3.829880  0.883548
     spin moment: S , {S} =    1.53377   1.53377   0.00000   0.00000
   scf:   83    -2326.968179    -2326.966358    -2327.144521  0.000882 -3.823468  0.864044
     spin moment: S , {S} =    1.53424   1.53424   0.00000   0.00000
   scf:   84    -2326.969835    -2326.968100    -2327.145981  0.000863 -3.817199  0.845068
     spin moment: S , {S} =    1.53471   1.53471   0.00000   0.00000
   scf:   85    -2326.971416    -2326.969762    -2327.147375  0.000844 -3.811069  0.826599
     spin moment: S , {S} =    1.53519   1.53519   0.00000   0.00000
   scf:   86    -2326.972926    -2326.971347    -2327.148707  0.000826 -3.805074  0.808619
     spin moment: S , {S} =    1.53567   1.53567   0.00000   0.00000
   scf:   87    -2326.974368    -2326.972861    -2327.149982  0.000808 -3.799211  0.791108
     spin moment: S , {S} =    1.53616   1.53616   0.00000   0.00000
   scf:   88    -2326.975747    -2326.974307    -2327.151202  0.000791 -3.793476  0.774049
     spin moment: S , {S} =    1.53664   1.53664   0.00000   0.00000
   scf:   89    -2326.977066    -2326.975689    -2327.152370  0.000775 -3.787866  0.757427
     spin moment: S , {S} =    1.53713   1.53713   0.00000   0.00000
   scf:   90    -2326.978329    -2326.977012    -2327.153489  0.000759 -3.782378  0.741226
     spin moment: S , {S} =    1.53761   1.53761   0.00000   0.00000
   scf:   91    -2326.979538    -2326.978277    -2327.154562  0.000744 -3.777009  0.725431
     spin moment: S , {S} =    1.53810   1.53810   0.00000   0.00000
   scf:   92    -2326.980696    -2326.979489    -2327.155591  0.000729 -3.771757  0.710030
     spin moment: S , {S} =    1.53860   1.53860   0.00000   0.00000
   scf:   93    -2326.981806    -2326.980650    -2327.156579  0.000715 -3.766617  0.695008
     spin moment: S , {S} =    1.53909   1.53909   0.00000   0.00000
   scf:   94    -2326.982871    -2326.981763    -2327.157527  0.000701 -3.761588  0.680355
     spin moment: S , {S} =    1.53958   1.53958   0.00000   0.00000
   scf:   95    -2326.983893    -2326.982830    -2327.158438  0.000687 -3.756667  0.666058
     spin moment: S , {S} =    1.54008   1.54008   0.00000   0.00000
   scf:   96    -2326.984874    -2326.983854    -2327.159313  0.000674 -3.751851  0.652105
     spin moment: S , {S} =    1.54057   1.54057   0.00000   0.00000
   scf:   97    -2326.985815    -2326.984836    -2327.160155  0.000661 -3.747138  0.638487
     spin moment: S , {S} =    1.54107   1.54107   0.00000   0.00000
   scf:   98    -2326.986720    -2326.985780    -2327.160964  0.000649 -3.742525  0.625194
     spin moment: S , {S} =    1.54156   1.54156   0.00000   0.00000
   scf:   99    -2326.987590    -2326.986686    -2327.161743  0.000637 -3.738010  0.612215
     spin moment: S , {S} =    1.54206   1.54206   0.00000   0.00000
   scf:  100    -2326.988426    -2326.987558    -2327.162492  0.000625 -3.733590  0.599541
     spin moment: S , {S} =    1.54255   1.54255   0.00000   0.00000
   scf:  101    -2326.989230    -2326.988395    -2327.163214  0.000614 -3.729264  0.587164
     spin moment: S , {S} =    1.54305   1.54305   0.00000   0.00000
   scf:  102    -2326.990004    -2326.989201    -2327.163909  0.000603 -3.725029  0.575075
     spin moment: S , {S} =    1.54355   1.54355   0.00000   0.00000
   scf:  103    -2326.990748    -2326.989976    -2327.164579  0.000592 -3.720883  0.563266
     spin moment: S , {S} =    1.54404   1.54404   0.00000   0.00000
   scf:  104    -2326.991465    -2326.990722    -2327.165225  0.000582 -3.716823  0.551730
     spin moment: S , {S} =    1.54454   1.54454   0.00000   0.00000
   scf:  105    -2326.992156    -2326.991440    -2327.165847  0.000571 -3.712849  0.540457
     spin moment: S , {S} =    1.54504   1.54504   0.00000   0.00000
   scf:  106    -2326.992821    -2326.992132    -2327.166448  0.000561 -3.708958  0.529443
     spin moment: S , {S} =    1.54553   1.54553   0.00000   0.00000
   scf:  107    -2326.993462    -2326.992798    -2327.167027  0.000552 -3.705147  0.518678
     spin moment: S , {S} =    1.54603   1.54603   0.00000   0.00000
   scf:  108    -2326.994081    -2326.993440    -2327.167587  0.000542 -3.701416  0.508158
     spin moment: S , {S} =    1.54653   1.54653   0.00000   0.00000
   scf:  109    -2326.994677    -2326.994059    -2327.168127  0.000533 -3.697762  0.497875
     spin moment: S , {S} =    1.54702   1.54702   0.00000   0.00000
   scf:  110    -2326.995278    -2326.994682    -2327.168674  0.000524 -3.694184  0.487820
     spin moment: S , {S} =    1.54752   1.54752   0.00000   0.00000
   scf:  111    -2326.995832    -2326.995258    -2327.169178  0.000515 -3.690679  0.477993
     spin moment: S , {S} =    1.54801   1.54801   0.00000   0.00000
   scf:  112    -2326.996368    -2326.995814    -2327.169664  0.000506 -3.687247  0.468385
     spin moment: S , {S} =    1.54850   1.54850   0.00000   0.00000
   scf:  113    -2326.996885    -2326.996350    -2327.170135  0.000498 -3.683885  0.458991
     spin moment: S , {S} =    1.54900   1.54900   0.00000   0.00000
   scf:  114    -2326.997385    -2326.996868    -2327.170590  0.000489 -3.680592  0.449806
     spin moment: S , {S} =    1.54949   1.54949   0.00000   0.00000
   scf:  115    -2326.997867    -2326.997368    -2327.171030  0.000481 -3.677367  0.440823
     spin moment: S , {S} =    1.54998   1.54998   0.00000   0.00000
   scf:  116    -2326.998333    -2326.997851    -2327.171455  0.000473 -3.674208  0.432039
     spin moment: S , {S} =    1.55047   1.55047   0.00000   0.00000
   scf:  117    -2326.998784    -2326.998318    -2327.171867  0.000465 -3.671113  0.423447
     spin moment: S , {S} =    1.55096   1.55096   0.00000   0.00000
   scf:  118    -2326.999219    -2326.998769    -2327.172266  0.000458 -3.668081  0.415044
     spin moment: S , {S} =    1.55145   1.55145   0.00000   0.00000
   scf:  119    -2326.999641    -2326.999205    -2327.172652  0.000450 -3.665110  0.406824
     spin moment: S , {S} =    1.55194   1.55194   0.00000   0.00000
   scf:  120    -2327.000048    -2326.999627    -2327.173026  0.000443 -3.662200  0.398783
     spin moment: S , {S} =    1.55243   1.55243   0.00000   0.00000
   scf:  121    -2327.000442    -2327.000035    -2327.173388  0.000436 -3.659349  0.390918
     spin moment: S , {S} =    1.55292   1.55292   0.00000   0.00000
   scf:  122    -2327.000823    -2327.000430    -2327.173739  0.000429 -3.656555  0.383223
     spin moment: S , {S} =    1.55341   1.55341   0.00000   0.00000
   scf:  123    -2327.001192    -2327.000812    -2327.174079  0.000422 -3.653818  0.375694
     spin moment: S , {S} =    1.55389   1.55389   0.00000   0.00000
   scf:  124    -2327.001550    -2327.001181    -2327.174408  0.000415 -3.651135  0.368328
     spin moment: S , {S} =    1.55438   1.55438   0.00000   0.00000
   scf:  125    -2327.001896    -2327.001539    -2327.174728  0.000409 -3.648507  0.361121
     spin moment: S , {S} =    1.55486   1.55486   0.00000   0.00000
   scf:  126    -2327.002231    -2327.001885    -2327.175038  0.000402 -3.645931  0.354068
     spin moment: S , {S} =    1.55534   1.55534   0.00000   0.00000
   scf:  127    -2327.002556    -2327.002221    -2327.175338  0.000396 -3.643407  0.347167
     spin moment: S , {S} =    1.55583   1.55583   0.00000   0.00000
   scf:  128    -2327.002870    -2327.002546    -2327.175630  0.000390 -3.640933  0.340413
     spin moment: S , {S} =    1.55631   1.55631   0.00000   0.00000
   scf:  129    -2327.003175    -2327.002861    -2327.175913  0.000384 -3.638508  0.333804
     spin moment: S , {S} =    1.55679   1.55679   0.00000   0.00000
   scf:  130    -2327.003471    -2327.003166    -2327.176188  0.000378 -3.636132  0.327336
     spin moment: S , {S} =    1.55727   1.55727   0.00000   0.00000
   scf:  131    -2327.003757    -2327.003462    -2327.176455  0.000372 -3.633802  0.321005
     spin moment: S , {S} =    1.55775   1.55775   0.00000   0.00000
   scf:  132    -2327.004035    -2327.003749    -2327.176714  0.000366 -3.631519  0.314809
     spin moment: S , {S} =    1.55822   1.55822   0.00000   0.00000
   scf:  133    -2327.004305    -2327.004027    -2327.176966  0.000361 -3.629281  0.308744
     spin moment: S , {S} =    1.55870   1.55870   0.00000   0.00000
   scf:  134    -2327.004566    -2327.004297    -2327.177210  0.000355 -3.627087  0.302807
     spin moment: S , {S} =    1.55917   1.55917   0.00000   0.00000
   scf:  135    -2327.004820    -2327.004559    -2327.177448  0.000350 -3.624936  0.296996
     spin moment: S , {S} =    1.55965   1.55965   0.00000   0.00000
   scf:  136    -2327.005066    -2327.004813    -2327.177679  0.000345 -3.622828  0.291307
     spin moment: S , {S} =    1.56012   1.56012   0.00000   0.00000
   scf:  137    -2327.005306    -2327.005059    -2327.177904  0.000340 -3.620761  0.285738
     spin moment: S , {S} =    1.56059   1.56059   0.00000   0.00000
   scf:  138    -2327.005538    -2327.005299    -2327.178122  0.000334 -3.618734  0.280286
     spin moment: S , {S} =    1.56106   1.56106   0.00000   0.00000
   scf:  139    -2327.005763    -2327.005531    -2327.178334  0.000329 -3.616747  0.274949
     spin moment: S , {S} =    1.56153   1.56153   0.00000   0.00000
   scf:  140    -2327.005982    -2327.005757    -2327.178541  0.000325 -3.614799  0.269723
     spin moment: S , {S} =    1.56200   1.56200   0.00000   0.00000
   scf:  141    -2327.006195    -2327.005976    -2327.178742  0.000320 -3.612888  0.264606
     spin moment: S , {S} =    1.56247   1.56247   0.00000   0.00000
   scf:  142    -2327.006401    -2327.006189    -2327.178938  0.000315 -3.611015  0.259597
     spin moment: S , {S} =    1.56293   1.56293   0.00000   0.00000
   scf:  143    -2327.006602    -2327.006395    -2327.179128  0.000310 -3.609178  0.254692
     spin moment: S , {S} =    1.56340   1.56340   0.00000   0.00000
   scf:  144    -2327.006797    -2327.006596    -2327.179314  0.000306 -3.607376  0.249888
     spin moment: S , {S} =    1.56386   1.56386   0.00000   0.00000
   scf:  145    -2327.006987    -2327.006792    -2327.179494  0.000301 -3.605609  0.245185
     spin moment: S , {S} =    1.56433   1.56433   0.00000   0.00000
   scf:  146    -2327.007171    -2327.006981    -2327.179670  0.000297 -3.603876  0.240579
     spin moment: S , {S} =    1.56479   1.56479   0.00000   0.00000
   scf:  147    -2327.007350    -2327.007166    -2327.179841  0.000293 -3.602177  0.236069
     spin moment: S , {S} =    1.56525   1.56525   0.00000   0.00000
   scf:  148    -2327.007525    -2327.007345    -2327.180008  0.000288 -3.600510  0.231652
     spin moment: S , {S} =    1.56571   1.56571   0.00000   0.00000
   scf:  149    -2327.007694    -2327.007520    -2327.180171  0.000284 -3.598875  0.227327
     spin moment: S , {S} =    1.56617   1.56617   0.00000   0.00000
   scf:  150    -2327.007859    -2327.007690    -2327.180329  0.000280 -3.597271  0.223090
     spin moment: S , {S} =    1.56662   1.56662   0.00000   0.00000
   scf:  151    -2327.008020    -2327.007855    -2327.180484  0.000276 -3.595698  0.218941
     spin moment: S , {S} =    1.56708   1.56708   0.00000   0.00000
   scf:  152    -2327.008176    -2327.008015    -2327.180634  0.000272 -3.594155  0.214877
     spin moment: S , {S} =    1.56754   1.56754   0.00000   0.00000
   scf:  153    -2327.008328    -2327.008172    -2327.180781  0.000268 -3.592641  0.210897
     spin moment: S , {S} =    1.56799   1.56799   0.00000   0.00000
   scf:  154    -2327.008476    -2327.008324    -2327.180925  0.000264 -3.591155  0.206998
     spin moment: S , {S} =    1.56844   1.56844   0.00000   0.00000
   scf:  155    -2327.008620    -2327.008472    -2327.181064  0.000261 -3.589698  0.203179
     spin moment: S , {S} =    1.56889   1.56889   0.00000   0.00000
   scf:  156    -2327.008760    -2327.008616    -2327.181201  0.000257 -3.588268  0.199438
     spin moment: S , {S} =    1.56934   1.56934   0.00000   0.00000
   scf:  157    -2327.008897    -2327.008757    -2327.181334  0.000253 -3.586865  0.195774
     spin moment: S , {S} =    1.56979   1.56979   0.00000   0.00000
   scf:  158    -2327.009030    -2327.008893    -2327.181464  0.000250 -3.585489  0.192185
     spin moment: S , {S} =    1.57024   1.57024   0.00000   0.00000
   scf:  159    -2327.009160    -2327.009026    -2327.181591  0.000246 -3.584138  0.188668
     spin moment: S , {S} =    1.57069   1.57069   0.00000   0.00000
   scf:  160    -2327.009286    -2327.009156    -2327.181714  0.000243 -3.582812  0.185223
     spin moment: S , {S} =    1.57113   1.57113   0.00000   0.00000
   scf:  161    -2327.009409    -2327.009283    -2327.181835  0.000240 -3.581511  0.181848
     spin moment: S , {S} =    1.57158   1.57158   0.00000   0.00000
   scf:  162    -2327.009529    -2327.009406    -2327.181953  0.000236 -3.580235  0.178542
     spin moment: S , {S} =    1.57202   1.57202   0.00000   0.00000
   scf:  163    -2327.009645    -2327.009526    -2327.182069  0.000233 -3.578982  0.175302
     spin moment: S , {S} =    1.57246   1.57246   0.00000   0.00000
   scf:  164    -2327.009759    -2327.009643    -2327.182181  0.000230 -3.577752  0.172128
     spin moment: S , {S} =    1.57290   1.57290   0.00000   0.00000
   scf:  165    -2327.009870    -2327.009756    -2327.182291  0.000227 -3.576545  0.169019
     spin moment: S , {S} =    1.57334   1.57334   0.00000   0.00000
   scf:  166    -2327.009979    -2327.009868    -2327.182399  0.000224 -3.575360  0.165972
     spin moment: S , {S} =    1.57378   1.57378   0.00000   0.00000
   scf:  167    -2327.010084    -2327.009976    -2327.182504  0.000221 -3.574197  0.162986
     spin moment: S , {S} =    1.57422   1.57422   0.00000   0.00000
   scf:  168    -2327.010187    -2327.010081    -2327.182607  0.000218 -3.573055  0.160060
     spin moment: S , {S} =    1.57466   1.57466   0.00000   0.00000
   scf:  169    -2327.010287    -2327.010184    -2327.182707  0.000215 -3.571934  0.157193
     spin moment: S , {S} =    1.57509   1.57509   0.00000   0.00000
   scf:  170    -2327.010385    -2327.010285    -2327.182805  0.000212 -3.570834  0.154384
     spin moment: S , {S} =    1.57553   1.57553   0.00000   0.00000
   scf:  171    -2327.010481    -2327.010383    -2327.182901  0.000209 -3.569754  0.151631
     spin moment: S , {S} =    1.57596   1.57596   0.00000   0.00000
   scf:  172    -2327.010574    -2327.010478    -2327.182995  0.000206 -3.568693  0.148933
     spin moment: S , {S} =    1.57639   1.57639   0.00000   0.00000
   scf:  173    -2327.010665    -2327.010572    -2327.183087  0.000203 -3.567652  0.146289
     spin moment: S , {S} =    1.57682   1.57682   0.00000   0.00000
   scf:  174    -2327.010753    -2327.010663    -2327.183177  0.000201 -3.566629  0.143698
     spin moment: S , {S} =    1.57725   1.57725   0.00000   0.00000
   scf:  175    -2327.010840    -2327.010751    -2327.183265  0.000198 -3.565625  0.141159
     spin moment: S , {S} =    1.57768   1.57768   0.00000   0.00000
   scf:  176    -2327.010924    -2327.010838    -2327.183351  0.000195 -3.564639  0.138670
     spin moment: S , {S} =    1.57811   1.57811   0.00000   0.00000
   scf:  177    -2327.011007    -2327.010922    -2327.183435  0.000193 -3.563670  0.136230
     spin moment: S , {S} =    1.57853   1.57853   0.00000   0.00000
   scf:  178    -2327.011087    -2327.011005    -2327.183518  0.000190 -3.562719  0.133839
     spin moment: S , {S} =    1.57896   1.57896   0.00000   0.00000
   scf:  179    -2327.011166    -2327.011085    -2327.183598  0.000188 -3.561785  0.131495
     spin moment: S , {S} =    1.57938   1.57938   0.00000   0.00000
   scf:  180    -2327.011243    -2327.011164    -2327.183677  0.000185 -3.560867  0.129198
     spin moment: S , {S} =    1.57981   1.57981   0.00000   0.00000
   scf:  181    -2327.011318    -2327.011241    -2327.183755  0.000183 -3.559966  0.126946
     spin moment: S , {S} =    1.58023   1.58023   0.00000   0.00000
   scf:  182    -2327.011391    -2327.011316    -2327.183831  0.000180 -3.559081  0.124738
     spin moment: S , {S} =    1.58065   1.58065   0.00000   0.00000
   scf:  183    -2327.011462    -2327.011389    -2327.183905  0.000178 -3.558211  0.122574
     spin moment: S , {S} =    1.58107   1.58107   0.00000   0.00000
   scf:  184    -2327.011532    -2327.011461    -2327.183978  0.000176 -3.557357  0.120453
     spin moment: S , {S} =    1.58149   1.58149   0.00000   0.00000
   scf:  185    -2327.011600    -2327.011530    -2327.184049  0.000173 -3.556518  0.118373
     spin moment: S , {S} =    1.58190   1.58190   0.00000   0.00000
   scf:  186    -2327.011667    -2327.011599    -2327.184119  0.000171 -3.555693  0.116334
     spin moment: S , {S} =    1.58232   1.58232   0.00000   0.00000
   scf:  187    -2327.011732    -2327.011665    -2327.184187  0.000169 -3.554883  0.114336
     spin moment: S , {S} =    1.58274   1.58274   0.00000   0.00000
   scf:  188    -2327.011795    -2327.011730    -2327.184254  0.000167 -3.554087  0.112376
     spin moment: S , {S} =    1.58315   1.58315   0.00000   0.00000
   scf:  189    -2327.011858    -2327.011794    -2327.184320  0.000165 -3.553305  0.110454
     spin moment: S , {S} =    1.58356   1.58356   0.00000   0.00000
   scf:  190    -2327.011918    -2327.011856    -2327.184384  0.000163 -3.552537  0.108570
     spin moment: S , {S} =    1.58397   1.58397   0.00000   0.00000
   scf:  191    -2327.011978    -2327.011917    -2327.184447  0.000161 -3.551781  0.106723
     spin moment: S , {S} =    1.58439   1.58439   0.00000   0.00000
   scf:  192    -2327.012036    -2327.011976    -2327.184509  0.000159 -3.551039  0.104911
     spin moment: S , {S} =    1.58480   1.58480   0.00000   0.00000
   scf:  193    -2327.012092    -2327.012034    -2327.184569  0.000157 -3.550309  0.103135
     spin moment: S , {S} =    1.58520   1.58520   0.00000   0.00000
   scf:  194    -2327.012148    -2327.012091    -2327.184629  0.000155 -3.549592  0.101394
     spin moment: S , {S} =    1.58561   1.58561   0.00000   0.00000
   scf:  195    -2327.012202    -2327.012146    -2327.184687  0.000153 -3.548888  0.099686
     spin moment: S , {S} =    1.58602   1.58602   0.00000   0.00000
   scf:  196    -2327.012255    -2327.012200    -2327.184744  0.000151 -3.548195  0.098011
     spin moment: S , {S} =    1.58642   1.58642   0.00000   0.00000
   scf:  197    -2327.012306    -2327.012253    -2327.184801  0.000149 -3.547514  0.096368
     spin moment: S , {S} =    1.58683   1.58683   0.00000   0.00000
   scf:  198    -2327.012357    -2327.012305    -2327.184856  0.000147 -3.546845  0.094757
     spin moment: S , {S} =    1.58723   1.58723   0.00000   0.00000
   scf:  199    -2327.012406    -2327.012356    -2327.184910  0.000145 -3.546186  0.093177
     spin moment: S , {S} =    1.58764   1.58764   0.00000   0.00000
   scf:  200    -2327.012455    -2327.012405    -2327.184963  0.000143 -3.545539  0.091628
     spin moment: S , {S} =    1.58804   1.58804   0.00000   0.00000
mix: switching mixer --> linear-2
   scf:  201    -2327.012502    -2327.012454    -2327.185015  0.000142 -3.544903  0.090108
     spin moment: S , {S} =    1.58844   1.58844   0.00000   0.00000
   scf:  202    -2327.012642    -2327.012548    -2327.185116  0.000280 -3.543652  0.087126
     spin moment: S , {S} =    1.58924   1.58924   0.00000   0.00000
   scf:  203    -2327.012728    -2327.012638    -2327.185214  0.000273 -3.542443  0.084259
     spin moment: S , {S} =    1.59003   1.59003   0.00000   0.00000
   scf:  204    -2327.012810    -2327.012724    -2327.185308  0.000266 -3.541274  0.081501
     spin moment: S , {S} =    1.59082   1.59082   0.00000   0.00000
   scf:  205    -2327.012889    -2327.012806    -2327.185399  0.000260 -3.540144  0.078848
     spin moment: S , {S} =    1.59161   1.59161   0.00000   0.00000
   scf:  206    -2327.012964    -2327.012885    -2327.185486  0.000253 -3.539050  0.076295
     spin moment: S , {S} =    1.59239   1.59239   0.00000   0.00000
   scf:  207    -2327.013036    -2327.012960    -2327.185571  0.000247 -3.537993  0.073839
     spin moment: S , {S} =    1.59317   1.59317   0.00000   0.00000
   scf:  208    -2327.013105    -2327.013033    -2327.185652  0.000241 -3.536969  0.071475
     spin moment: S , {S} =    1.59394   1.59394   0.00000   0.00000
   scf:  209    -2327.013171    -2327.013102    -2327.185731  0.000236 -3.535979  0.069200
     spin moment: S , {S} =    1.59471   1.59471   0.00000   0.00000
   scf:  210    -2327.013234    -2327.013168    -2327.185806  0.000230 -3.535020  0.067010
     spin moment: S , {S} =    1.59548   1.59548   0.00000   0.00000
   scf:  211    -2327.013295    -2327.013231    -2327.185880  0.000225 -3.534091  0.064901
     spin moment: S , {S} =    1.59624   1.59624   0.00000   0.00000
   scf:  212    -2327.013353    -2327.013292    -2327.185950  0.000219 -3.533192  0.062871
     spin moment: S , {S} =    1.59700   1.59700   0.00000   0.00000
   scf:  213    -2327.013408    -2327.013350    -2327.186019  0.000214 -3.532321  0.060916
     spin moment: S , {S} =    1.59776   1.59776   0.00000   0.00000
   scf:  214    -2327.013462    -2327.013406    -2327.186085  0.000209 -3.531478  0.059033
     spin moment: S , {S} =    1.59851   1.59851   0.00000   0.00000
   scf:  215    -2327.013513    -2327.013459    -2327.186148  0.000204 -3.530660  0.057219
     spin moment: S , {S} =    1.59926   1.59926   0.00000   0.00000
   scf:  216    -2327.013561    -2327.013510    -2327.186210  0.000200 -3.529867  0.055471
     spin moment: S , {S} =    1.60000   1.60000   0.00000   0.00000
   scf:  217    -2327.013608    -2327.013559    -2327.186270  0.000195 -3.529099  0.053787
     spin moment: S , {S} =    1.60074   1.60074   0.00000   0.00000
   scf:  218    -2327.013653    -2327.013606    -2327.186327  0.000191 -3.528354  0.052164
     spin moment: S , {S} =    1.60148   1.60148   0.00000   0.00000
   scf:  219    -2327.013696    -2327.013651    -2327.186383  0.000186 -3.527631  0.050600
     spin moment: S , {S} =    1.60221   1.60221   0.00000   0.00000
   scf:  220    -2327.013738    -2327.013694    -2327.186437  0.000182 -3.526930  0.049092
     spin moment: S , {S} =    1.60294   1.60294   0.00000   0.00000
   scf:  221    -2327.013777    -2327.013736    -2327.186490  0.000178 -3.526250  0.047638
     spin moment: S , {S} =    1.60367   1.60367   0.00000   0.00000
   scf:  222    -2327.013815    -2327.013775    -2327.186540  0.000174 -3.525589  0.046237
     spin moment: S , {S} =    1.60439   1.60439   0.00000   0.00000
   scf:  223    -2327.013852    -2327.013813    -2327.186589  0.000170 -3.524948  0.044885
     spin moment: S , {S} =    1.60511   1.60511   0.00000   0.00000
   scf:  224    -2327.013886    -2327.013850    -2327.186637  0.000166 -3.524326  0.043581
     spin moment: S , {S} =    1.60583   1.60583   0.00000   0.00000
   scf:  225    -2327.013920    -2327.013885    -2327.186683  0.000163 -3.523722  0.042322
     spin moment: S , {S} =    1.60654   1.60654   0.00000   0.00000
   scf:  226    -2327.013952    -2327.013918    -2327.186727  0.000159 -3.523134  0.041109
     spin moment: S , {S} =    1.60725   1.60725   0.00000   0.00000
   scf:  227    -2327.013983    -2327.013950    -2327.186770  0.000156 -3.522564  0.039937
     spin moment: S , {S} =    1.60795   1.60795   0.00000   0.00000
   scf:  228    -2327.014012    -2327.013981    -2327.186812  0.000152 -3.522009  0.038806
     spin moment: S , {S} =    1.60866   1.60866   0.00000   0.00000
   scf:  229    -2327.014040    -2327.014011    -2327.186853  0.000149 -3.521471  0.037715
     spin moment: S , {S} =    1.60936   1.60936   0.00000   0.00000
   scf:  230    -2327.014068    -2327.014039    -2327.186892  0.000146 -3.520947  0.036661
     spin moment: S , {S} =    1.61005   1.61005   0.00000   0.00000
   scf:  231    -2327.014094    -2327.014066    -2327.186930  0.000143 -3.520437  0.035644
     spin moment: S , {S} =    1.61074   1.61074   0.00000   0.00000
   scf:  232    -2327.014119    -2327.014092    -2327.186967  0.000140 -3.519942  0.034661
     spin moment: S , {S} =    1.61143   1.61143   0.00000   0.00000
   scf:  233    -2327.014143    -2327.014117    -2327.187003  0.000137 -3.519460  0.033711
     spin moment: S , {S} =    1.61212   1.61212   0.00000   0.00000
   scf:  234    -2327.014165    -2327.014141    -2327.187038  0.000134 -3.518990  0.032794
     spin moment: S , {S} =    1.61280   1.61280   0.00000   0.00000
   scf:  235    -2327.014187    -2327.014164    -2327.187072  0.000131 -3.518534  0.032203
     spin moment: S , {S} =    1.61348   1.61348   0.00000   0.00000
   scf:  236    -2327.014209    -2327.014186    -2327.187105  0.000128 -3.518089  0.031858
     spin moment: S , {S} =    1.61416   1.61416   0.00000   0.00000
   scf:  237    -2327.014229    -2327.014208    -2327.187137  0.000125 -3.517657  0.031509
     spin moment: S , {S} =    1.61483   1.61483   0.00000   0.00000
   scf:  238    -2327.014248    -2327.014228    -2327.187168  0.000123 -3.517235  0.031157
     spin moment: S , {S} =    1.61550   1.61550   0.00000   0.00000
   scf:  239    -2327.014267    -2327.014247    -2327.187198  0.000120 -3.516825  0.030801
     spin moment: S , {S} =    1.61617   1.61617   0.00000   0.00000
   scf:  240    -2327.014285    -2327.014266    -2327.187227  0.000118 -3.516425  0.030442
     spin moment: S , {S} =    1.61683   1.61683   0.00000   0.00000
   scf:  241    -2327.014302    -2327.014284    -2327.187256  0.000115 -3.516035  0.030081
     spin moment: S , {S} =    1.61749   1.61749   0.00000   0.00000
   scf:  242    -2327.014318    -2327.014301    -2327.187283  0.000113 -3.515656  0.029718
     spin moment: S , {S} =    1.61815   1.61815   0.00000   0.00000
   scf:  243    -2327.014334    -2327.014317    -2327.187310  0.000111 -3.515286  0.029354
     spin moment: S , {S} =    1.61881   1.61881   0.00000   0.00000
   scf:  244    -2327.014349    -2327.014333    -2327.187336  0.000108 -3.514925  0.028989
     spin moment: S , {S} =    1.61946   1.61946   0.00000   0.00000
   scf:  245    -2327.014363    -2327.014348    -2327.187361  0.000106 -3.514573  0.028623
     spin moment: S , {S} =    1.62011   1.62011   0.00000   0.00000
   scf:  246    -2327.014377    -2327.014362    -2327.187386  0.000104 -3.514229  0.028257
     spin moment: S , {S} =    1.62075   1.62075   0.00000   0.00000
   scf:  247    -2327.014390    -2327.014376    -2327.187410  0.000102 -3.513895  0.027891
     spin moment: S , {S} =    1.62140   1.62140   0.00000   0.00000
   scf:  248    -2327.014403    -2327.014390    -2327.187433  0.000100 -3.513568  0.027525
     spin moment: S , {S} =    1.62204   1.62204   0.00000   0.00000
   scf:  249    -2327.014415    -2327.014402    -2327.187456  0.000098 -3.513249  0.027160
     spin moment: S , {S} =    1.62268   1.62268   0.00000   0.00000
   scf:  250    -2327.014427    -2327.014414    -2327.187478  0.000096 -3.512938  0.026795
     spin moment: S , {S} =    1.62331   1.62331   0.00000   0.00000
   scf:  251    -2327.014438    -2327.014426    -2327.187500  0.000094 -3.512634  0.026432
     spin moment: S , {S} =    1.62394   1.62394   0.00000   0.00000
   scf:  252    -2327.014449    -2327.014437    -2327.187521  0.000092 -3.512337  0.026070
     spin moment: S , {S} =    1.62457   1.62457   0.00000   0.00000
   scf:  253    -2327.014459    -2327.014448    -2327.187541  0.000090 -3.512048  0.025709
     spin moment: S , {S} =    1.62520   1.62520   0.00000   0.00000
   scf:  254    -2327.014469    -2327.014458    -2327.187561  0.000089 -3.511765  0.025350
     spin moment: S , {S} =    1.62582   1.62582   0.00000   0.00000
   scf:  255    -2327.014478    -2327.014468    -2327.187580  0.000087 -3.511488  0.024993
     spin moment: S , {S} =    1.62644   1.62644   0.00000   0.00000
   scf:  256    -2327.014487    -2327.014477    -2327.187599  0.000085 -3.511218  0.024638
     spin moment: S , {S} =    1.62706   1.62706   0.00000   0.00000
   scf:  257    -2327.014495    -2327.014486    -2327.187617  0.000084 -3.510954  0.024286
     spin moment: S , {S} =    1.62768   1.62768   0.00000   0.00000
   scf:  258    -2327.014504    -2327.014495    -2327.187635  0.000082 -3.510696  0.023935
     spin moment: S , {S} =    1.62829   1.62829   0.00000   0.00000
   scf:  259    -2327.014512    -2327.014503    -2327.187652  0.000080 -3.510444  0.023588
     spin moment: S , {S} =    1.62890   1.62890   0.00000   0.00000
   scf:  260    -2327.014519    -2327.014511    -2327.187669  0.000079 -3.510197  0.023243
     spin moment: S , {S} =    1.62951   1.62951   0.00000   0.00000
   scf:  261    -2327.014526    -2327.014519    -2327.187686  0.000077 -3.509956  0.022900
     spin moment: S , {S} =    1.63011   1.63011   0.00000   0.00000
   scf:  262    -2327.014533    -2327.014526    -2327.187702  0.000076 -3.509720  0.022561
     spin moment: S , {S} =    1.63071   1.63071   0.00000   0.00000
   scf:  263    -2327.014540    -2327.014533    -2327.187718  0.000074 -3.509490  0.022224
     spin moment: S , {S} =    1.63131   1.63131   0.00000   0.00000
   scf:  264    -2327.014546    -2327.014539    -2327.187733  0.000073 -3.509264  0.021891
     spin moment: S , {S} =    1.63191   1.63191   0.00000   0.00000
   scf:  265    -2327.014552    -2327.014546    -2327.187748  0.000071 -3.509043  0.021560
     spin moment: S , {S} =    1.63250   1.63250   0.00000   0.00000
   scf:  266    -2327.014558    -2327.014552    -2327.187762  0.000070 -3.508827  0.021233
     spin moment: S , {S} =    1.63309   1.63309   0.00000   0.00000
   scf:  267    -2327.014563    -2327.014557    -2327.187777  0.000069 -3.508616  0.020909
     spin moment: S , {S} =    1.63368   1.63368   0.00000   0.00000
   scf:  268    -2327.014568    -2327.014563    -2327.187791  0.000068 -3.508409  0.020589
     spin moment: S , {S} =    1.63427   1.63427   0.00000   0.00000
   scf:  269    -2327.014573    -2327.014568    -2327.187804  0.000066 -3.508206  0.020272
     spin moment: S , {S} =    1.63485   1.63485   0.00000   0.00000
   scf:  270    -2327.014578    -2327.014573    -2327.187817  0.000065 -3.508008  0.019958
     spin moment: S , {S} =    1.63544   1.63544   0.00000   0.00000
   scf:  271    -2327.014583    -2327.014578    -2327.187830  0.000064 -3.507814  0.019647
     spin moment: S , {S} =    1.63602   1.63602   0.00000   0.00000
   scf:  272    -2327.014587    -2327.014582    -2327.187843  0.000063 -3.507624  0.019341
     spin moment: S , {S} =    1.63659   1.63659   0.00000   0.00000
   scf:  273    -2327.014591    -2327.014587    -2327.187855  0.000061 -3.507437  0.019037
     spin moment: S , {S} =    1.63717   1.63717   0.00000   0.00000
   scf:  274    -2327.014595    -2327.014591    -2327.187867  0.000060 -3.507255  0.018738
     spin moment: S , {S} =    1.63774   1.63774   0.00000   0.00000
   scf:  275    -2327.014599    -2327.014595    -2327.187879  0.000059 -3.507076  0.018442
     spin moment: S , {S} =    1.63831   1.63831   0.00000   0.00000
   scf:  276    -2327.014602    -2327.014598    -2327.187890  0.000058 -3.506901  0.018149
     spin moment: S , {S} =    1.63887   1.63887   0.00000   0.00000
   scf:  277    -2327.014606    -2327.014602    -2327.187901  0.000057 -3.506729  0.017860
     spin moment: S , {S} =    1.63944   1.63944   0.00000   0.00000
   scf:  278    -2327.014609    -2327.014605    -2327.187912  0.000056 -3.506561  0.017575
     spin moment: S , {S} =    1.64000   1.64000   0.00000   0.00000
   scf:  279    -2327.014612    -2327.014609    -2327.187923  0.000055 -3.506396  0.017293
     spin moment: S , {S} =    1.64056   1.64056   0.00000   0.00000
   scf:  280    -2327.014615    -2327.014612    -2327.187933  0.000054 -3.506234  0.017015
     spin moment: S , {S} =    1.64112   1.64112   0.00000   0.00000
   scf:  281    -2327.014618    -2327.014615    -2327.187944  0.000053 -3.506076  0.016740
     spin moment: S , {S} =    1.64167   1.64167   0.00000   0.00000
   scf:  282    -2327.014620    -2327.014617    -2327.187954  0.000052 -3.505920  0.016470
     spin moment: S , {S} =    1.64223   1.64223   0.00000   0.00000
   scf:  283    -2327.014623    -2327.014620    -2327.187963  0.000051 -3.505768  0.016202
     spin moment: S , {S} =    1.64278   1.64278   0.00000   0.00000
   scf:  284    -2327.014625    -2327.014622    -2327.187973  0.000050 -3.505618  0.015939
     spin moment: S , {S} =    1.64333   1.64333   0.00000   0.00000
   scf:  285    -2327.014627    -2327.014625    -2327.187982  0.000049 -3.505472  0.015679
     spin moment: S , {S} =    1.64387   1.64387   0.00000   0.00000
   scf:  286    -2327.014629    -2327.014627    -2327.187991  0.000048 -3.505328  0.015422
     spin moment: S , {S} =    1.64441   1.64441   0.00000   0.00000
   scf:  287    -2327.014631    -2327.014629    -2327.188000  0.000047 -3.505187  0.015169
     spin moment: S , {S} =    1.64496   1.64496   0.00000   0.00000
   scf:  288    -2327.014633    -2327.014631    -2327.188009  0.000047 -3.505048  0.014920
     spin moment: S , {S} =    1.64550   1.64550   0.00000   0.00000
   scf:  289    -2327.014635    -2327.014633    -2327.188018  0.000046 -3.504913  0.014674
     spin moment: S , {S} =    1.64603   1.64603   0.00000   0.00000
   scf:  290    -2327.014637    -2327.014635    -2327.188026  0.000045 -3.504780  0.014432
     spin moment: S , {S} =    1.64657   1.64657   0.00000   0.00000
   scf:  291    -2327.014638    -2327.014637    -2327.188034  0.000044 -3.504649  0.014193
     spin moment: S , {S} =    1.64710   1.64710   0.00000   0.00000
   scf:  292    -2327.014640    -2327.014638    -2327.188042  0.000043 -3.504521  0.013957
     spin moment: S , {S} =    1.64763   1.64763   0.00000   0.00000
   scf:  293    -2327.014641    -2327.014640    -2327.188050  0.000043 -3.504395  0.013725
     spin moment: S , {S} =    1.64816   1.64816   0.00000   0.00000
   scf:  294    -2327.014643    -2327.014641    -2327.188058  0.000042 -3.504271  0.013497
     spin moment: S , {S} =    1.64868   1.64868   0.00000   0.00000
   scf:  295    -2327.014644    -2327.014643    -2327.188065  0.000041 -3.504150  0.013272
     spin moment: S , {S} =    1.64921   1.64921   0.00000   0.00000
   scf:  296    -2327.014645    -2327.014644    -2327.188073  0.000040 -3.504031  0.013050
     spin moment: S , {S} =    1.64973   1.64973   0.00000   0.00000
   scf:  297    -2327.014646    -2327.014645    -2327.188080  0.000040 -3.503914  0.012831
     spin moment: S , {S} =    1.65025   1.65025   0.00000   0.00000
   scf:  298    -2327.014647    -2327.014646    -2327.188087  0.000039 -3.503799  0.012616
     spin moment: S , {S} =    1.65077   1.65077   0.00000   0.00000
   scf:  299    -2327.014648    -2327.014647    -2327.188094  0.000038 -3.503686  0.012404
     spin moment: S , {S} =    1.65128   1.65128   0.00000   0.00000
   scf:  300    -2327.014649    -2327.014648    -2327.188101  0.000038 -3.503576  0.012195
     spin moment: S , {S} =    1.65179   1.65179   0.00000   0.00000
mix: switching mixer --> linear-3
   scf:  301    -2327.014650    -2327.014649    -2327.188107  0.000037 -3.503467  0.011990
     spin moment: S , {S} =    1.65231   1.65231   0.00000   0.00000
   scf:  302    -2327.014652    -2327.014651    -2327.188117  0.000054 -3.503307  0.011686
     spin moment: S , {S} =    1.65307   1.65307   0.00000   0.00000
   scf:  303    -2327.014653    -2327.014652    -2327.188127  0.000053 -3.503151  0.011389
     spin moment: S , {S} =    1.65383   1.65383   0.00000   0.00000
   scf:  304    -2327.014654    -2327.014653    -2327.188136  0.000052 -3.502999  0.011099
     spin moment: S , {S} =    1.65458   1.65458   0.00000   0.00000
   scf:  305    -2327.014655    -2327.014654    -2327.188145  0.000050 -3.502851  0.010817
     spin moment: S , {S} =    1.65533   1.65533   0.00000   0.00000
   scf:  306    -2327.014655    -2327.014655    -2327.188154  0.000049 -3.502708  0.010540
     spin moment: S , {S} =    1.65608   1.65608   0.00000   0.00000
   scf:  307    -2327.014656    -2327.014655    -2327.188162  0.000048 -3.502568  0.010270
     spin moment: S , {S} =    1.65682   1.65682   0.00000   0.00000
   scf:  308    -2327.014657    -2327.014656    -2327.188171  0.000047 -3.502431  0.010007
     spin moment: S , {S} =    1.65755   1.65755   0.00000   0.00000
   scf:  309    -2327.014657    -2327.014656    -2327.188179  0.000045 -3.502298  0.009750
     spin moment: S , {S} =    1.65829   1.65829   0.00000   0.00000
   scf:  310    -2327.014657    -2327.014657    -2327.188187  0.000044 -3.502169  0.009499
     spin moment: S , {S} =    1.65901   1.65901   0.00000   0.00000
   scf:  311    -2327.014658    -2327.014657    -2327.188194  0.000043 -3.502043  0.009255
     spin moment: S , {S} =    1.65974   1.65974   0.00000   0.00000
   scf:  312    -2327.014658    -2327.014658    -2327.188202  0.000042 -3.501920  0.009016
     spin moment: S , {S} =    1.66045   1.66045   0.00000   0.00000
   scf:  313    -2327.014658    -2327.014658    -2327.188209  0.000041 -3.501801  0.008783
     spin moment: S , {S} =    1.66117   1.66117   0.00000   0.00000
   scf:  314    -2327.014659    -2327.014658    -2327.188216  0.000040 -3.501684  0.008556
     spin moment: S , {S} =    1.66188   1.66188   0.00000   0.00000
   scf:  315    -2327.014659    -2327.014658    -2327.188223  0.000039 -3.501570  0.008334
     spin moment: S , {S} =    1.66258   1.66258   0.00000   0.00000
   scf:  316    -2327.014659    -2327.014659    -2327.188230  0.000038 -3.501459  0.008118
     spin moment: S , {S} =    1.66329   1.66329   0.00000   0.00000
   scf:  317    -2327.014659    -2327.014659    -2327.188236  0.000037 -3.501352  0.007907
     spin moment: S , {S} =    1.66398   1.66398   0.00000   0.00000
   scf:  318    -2327.014659    -2327.014659    -2327.188242  0.000036 -3.501246  0.007701
     spin moment: S , {S} =    1.66468   1.66468   0.00000   0.00000
   scf:  319    -2327.014659    -2327.014659    -2327.188249  0.000035 -3.501144  0.007500
     spin moment: S , {S} =    1.66537   1.66537   0.00000   0.00000
   scf:  320    -2327.014659    -2327.014659    -2327.188255  0.000035 -3.501044  0.007305
     spin moment: S , {S} =    1.66605   1.66605   0.00000   0.00000
   scf:  321    -2327.014659    -2327.014659    -2327.188261  0.000035 -3.500946  0.007181
     spin moment: S , {S} =    1.66673   1.66673   0.00000   0.00000
   scf:  322    -2327.014659    -2327.014659    -2327.188267  0.000035 -3.500851  0.007141
     spin moment: S , {S} =    1.66741   1.66741   0.00000   0.00000
   scf:  323    -2327.014659    -2327.014659    -2327.188272  0.000035 -3.500758  0.007101
     spin moment: S , {S} =    1.66808   1.66808   0.00000   0.00000
   scf:  324    -2327.014658    -2327.014658    -2327.188278  0.000034 -3.500668  0.007062
     spin moment: S , {S} =    1.66875   1.66875   0.00000   0.00000
   scf:  325    -2327.014658    -2327.014658    -2327.188283  0.000034 -3.500580  0.007023
     spin moment: S , {S} =    1.66942   1.66942   0.00000   0.00000
   scf:  326    -2327.014658    -2327.014658    -2327.188289  0.000034 -3.500493  0.006984
     spin moment: S , {S} =    1.67008   1.67008   0.00000   0.00000
   scf:  327    -2327.014658    -2327.014658    -2327.188294  0.000034 -3.500410  0.006946
     spin moment: S , {S} =    1.67073   1.67073   0.00000   0.00000
   scf:  328    -2327.014658    -2327.014658    -2327.188299  0.000034 -3.500328  0.006908
     spin moment: S , {S} =    1.67139   1.67139   0.00000   0.00000
   scf:  329    -2327.014658    -2327.014658    -2327.188304  0.000034 -3.500248  0.006870
     spin moment: S , {S} =    1.67204   1.67204   0.00000   0.00000
   scf:  330    -2327.014657    -2327.014658    -2327.188309  0.000034 -3.500170  0.006832
     spin moment: S , {S} =    1.67268   1.67268   0.00000   0.00000
   scf:  331    -2327.014657    -2327.014657    -2327.188313  0.000033 -3.500094  0.006795
     spin moment: S , {S} =    1.67333   1.67333   0.00000   0.00000
   scf:  332    -2327.014657    -2327.014657    -2327.188318  0.000033 -3.500020  0.006758
     spin moment: S , {S} =    1.67396   1.67396   0.00000   0.00000
   scf:  333    -2327.014657    -2327.014657    -2327.188323  0.000033 -3.499948  0.006721
     spin moment: S , {S} =    1.67460   1.67460   0.00000   0.00000
   scf:  334    -2327.014657    -2327.014657    -2327.188327  0.000033 -3.499877  0.006685
     spin moment: S , {S} =    1.67523   1.67523   0.00000   0.00000
   scf:  335    -2327.014656    -2327.014657    -2327.188332  0.000033 -3.499808  0.006648
     spin moment: S , {S} =    1.67586   1.67586   0.00000   0.00000
   scf:  336    -2327.014656    -2327.014656    -2327.188336  0.000033 -3.499741  0.006612
     spin moment: S , {S} =    1.67648   1.67648   0.00000   0.00000
   scf:  337    -2327.014656    -2327.014656    -2327.188340  0.000033 -3.499676  0.006577
     spin moment: S , {S} =    1.67710   1.67710   0.00000   0.00000
   scf:  338    -2327.014656    -2327.014656    -2327.188344  0.000032 -3.499612  0.006541
     spin moment: S , {S} =    1.67772   1.67772   0.00000   0.00000
   scf:  339    -2327.014656    -2327.014656    -2327.188348  0.000032 -3.499550  0.006506
     spin moment: S , {S} =    1.67833   1.67833   0.00000   0.00000
   scf:  340    -2327.014655    -2327.014656    -2327.188352  0.000032 -3.499489  0.006471
     spin moment: S , {S} =    1.67894   1.67894   0.00000   0.00000
   scf:  341    -2327.014655    -2327.014655    -2327.188356  0.000032 -3.499429  0.006436
     spin moment: S , {S} =    1.67954   1.67954   0.00000   0.00000
   scf:  342    -2327.014655    -2327.014655    -2327.188360  0.000032 -3.499372  0.006402
     spin moment: S , {S} =    1.68015   1.68015   0.00000   0.00000
   scf:  343    -2327.014655    -2327.014655    -2327.188364  0.000032 -3.499315  0.006367
     spin moment: S , {S} =    1.68075   1.68075   0.00000   0.00000
   scf:  344    -2327.014655    -2327.014655    -2327.188368  0.000032 -3.499260  0.006333
     spin moment: S , {S} =    1.68134   1.68134   0.00000   0.00000
   scf:  345    -2327.014654    -2327.014655    -2327.188371  0.000031 -3.499206  0.006300
     spin moment: S , {S} =    1.68193   1.68193   0.00000   0.00000
   scf:  346    -2327.014654    -2327.014654    -2327.188375  0.000031 -3.499154  0.006266
     spin moment: S , {S} =    1.68252   1.68252   0.00000   0.00000
   scf:  347    -2327.014654    -2327.014654    -2327.188378  0.000031 -3.499103  0.006233
     spin moment: S , {S} =    1.68311   1.68311   0.00000   0.00000
   scf:  348    -2327.014654    -2327.014654    -2327.188382  0.000031 -3.499053  0.006200
     spin moment: S , {S} =    1.68369   1.68369   0.00000   0.00000
   scf:  349    -2327.014654    -2327.014654    -2327.188385  0.000031 -3.499004  0.006167
     spin moment: S , {S} =    1.68427   1.68427   0.00000   0.00000
   scf:  350    -2327.014654    -2327.014654    -2327.188388  0.000031 -3.498956  0.006134
     spin moment: S , {S} =    1.68484   1.68484   0.00000   0.00000
   scf:  351    -2327.014653    -2327.014654    -2327.188392  0.000031 -3.498910  0.006101
     spin moment: S , {S} =    1.68542   1.68542   0.00000   0.00000
   scf:  352    -2327.014653    -2327.014653    -2327.188395  0.000030 -3.498865  0.006069
     spin moment: S , {S} =    1.68598   1.68598   0.00000   0.00000
   scf:  353    -2327.014653    -2327.014653    -2327.188398  0.000030 -3.498821  0.006037
     spin moment: S , {S} =    1.68655   1.68655   0.00000   0.00000
   scf:  354    -2327.014653    -2327.014653    -2327.188401  0.000030 -3.498778  0.006005
     spin moment: S , {S} =    1.68711   1.68711   0.00000   0.00000
   scf:  355    -2327.014653    -2327.014653    -2327.188404  0.000030 -3.498736  0.005974
     spin moment: S , {S} =    1.68767   1.68767   0.00000   0.00000
   scf:  356    -2327.014653    -2327.014653    -2327.188407  0.000030 -3.498695  0.005942
     spin moment: S , {S} =    1.68823   1.68823   0.00000   0.00000
   scf:  357    -2327.014653    -2327.014653    -2327.188410  0.000030 -3.498655  0.005911
     spin moment: S , {S} =    1.68878   1.68878   0.00000   0.00000
   scf:  358    -2327.014653    -2327.014653    -2327.188413  0.000030 -3.498616  0.005880
     spin moment: S , {S} =    1.68933   1.68933   0.00000   0.00000
   scf:  359    -2327.014653    -2327.014653    -2327.188416  0.000029 -3.498578  0.005849
     spin moment: S , {S} =    1.68988   1.68988   0.00000   0.00000
   scf:  360    -2327.014653    -2327.014653    -2327.188419  0.000029 -3.498541  0.005818
     spin moment: S , {S} =    1.69042   1.69042   0.00000   0.00000
   scf:  361    -2327.014653    -2327.014653    -2327.188422  0.000029 -3.498504  0.005788
     spin moment: S , {S} =    1.69096   1.69096   0.00000   0.00000
   scf:  362    -2327.014653    -2327.014653    -2327.188425  0.000029 -3.498469  0.005758
     spin moment: S , {S} =    1.69150   1.69150   0.00000   0.00000
   scf:  363    -2327.014652    -2327.014652    -2327.188427  0.000029 -3.498435  0.005727
     spin moment: S , {S} =    1.69203   1.69203   0.00000   0.00000
   scf:  364    -2327.014652    -2327.014652    -2327.188430  0.000029 -3.498401  0.005698
     spin moment: S , {S} =    1.69256   1.69256   0.00000   0.00000
   scf:  365    -2327.014652    -2327.014652    -2327.188433  0.000029 -3.498368  0.005668
     spin moment: S , {S} =    1.69309   1.69309   0.00000   0.00000
   scf:  366    -2327.014652    -2327.014652    -2327.188435  0.000028 -3.498336  0.005638
     spin moment: S , {S} =    1.69362   1.69362   0.00000   0.00000
   scf:  367    -2327.014652    -2327.014652    -2327.188438  0.000028 -3.498305  0.005609
     spin moment: S , {S} =    1.69414   1.69414   0.00000   0.00000
   scf:  368    -2327.014652    -2327.014652    -2327.188440  0.000028 -3.498275  0.005580
     spin moment: S , {S} =    1.69466   1.69466   0.00000   0.00000
   scf:  369    -2327.014652    -2327.014652    -2327.188443  0.000028 -3.498245  0.005551
     spin moment: S , {S} =    1.69517   1.69517   0.00000   0.00000
   scf:  370    -2327.014652    -2327.014652    -2327.188445  0.000028 -3.498217  0.005522
     spin moment: S , {S} =    1.69569   1.69569   0.00000   0.00000
   scf:  371    -2327.014652    -2327.014652    -2327.188448  0.000028 -3.498188  0.005493
     spin moment: S , {S} =    1.69620   1.69620   0.00000   0.00000
   scf:  372    -2327.014652    -2327.014652    -2327.188450  0.000028 -3.498161  0.005465
     spin moment: S , {S} =    1.69671   1.69671   0.00000   0.00000
   scf:  373    -2327.014653    -2327.014652    -2327.188452  0.000028 -3.498134  0.005436
     spin moment: S , {S} =    1.69721   1.69721   0.00000   0.00000
[...]
     spin moment: S , {S} =    1.76650   1.76650   0.00000   0.00000
   scf:  625    -2327.014680    -2327.014680    -2327.188646  0.000008 -3.497599  0.001499
     spin moment: S , {S} =    1.76663   1.76663   0.00000   0.00000
   scf:  626    -2327.014680    -2327.014680    -2327.188646  0.000008 -3.497601  0.001492
     spin moment: S , {S} =    1.76676   1.76676   0.00000   0.00000
   scf:  627    -2327.014680    -2327.014680    -2327.188646  0.000008 -3.497603  0.001484
     spin moment: S , {S} =    1.76689   1.76689   0.00000   0.00000
   scf:  628    -2327.014680    -2327.014680    -2327.188646  0.000008 -3.497605  0.001477
     spin moment: S , {S} =    1.76702   1.76702   0.00000   0.00000
   scf:  629    -2327.014680    -2327.014680    -2327.188646  0.000008 -3.497607  0.001469
     spin moment: S , {S} =    1.76715   1.76715   0.00000   0.00000
   scf:  630    -2327.014680    -2327.014680    -2327.188647  0.000008 -3.497609  0.001462
     spin moment: S , {S} =    1.76728   1.76728   0.00000   0.00000
   scf:  631    -2327.014680    -2327.014680    -2327.188647  0.000008 -3.497611  0.001454
     spin moment: S , {S} =    1.76741   1.76741   0.00000   0.00000
   scf:  632    -2327.014680    -2327.014680    -2327.188647  0.000008 -3.497613  0.001447
     spin moment: S , {S} =    1.76754   1.76754   0.00000   0.00000
   scf:  633    -2327.014680    -2327.014680    -2327.188647  0.000007 -3.497615  0.001439
     spin moment: S , {S} =    1.76766   1.76766   0.00000   0.00000
   scf:  634    -2327.014680    -2327.014680    -2327.188647  0.000007 -3.497617  0.001432
     spin moment: S , {S} =    1.76779   1.76779   0.00000   0.00000
   scf:  635    -2327.014680    -2327.014680    -2327.188647  0.000007 -3.497619  0.001425
     spin moment: S , {S} =    1.76792   1.76792   0.00000   0.00000
   scf:  636    -2327.014680    -2327.014680    -2327.188647  0.000007 -3.497621  0.001418
     spin moment: S , {S} =    1.76804   1.76804   0.00000   0.00000
   scf:  637    -2327.014680    -2327.014680    -2327.188648  0.000007 -3.497623  0.001410
     spin moment: S , {S} =    1.76817   1.76817   0.00000   0.00000
   scf:  638    -2327.014680    -2327.014680    -2327.188648  0.000007 -3.497625  0.001403
     spin moment: S , {S} =    1.76829   1.76829   0.00000   0.00000
   scf:  639    -2327.014680    -2327.014680    -2327.188648  0.000007 -3.497627  0.001396
     spin moment: S , {S} =    1.76842   1.76842   0.00000   0.00000
   scf:  640    -2327.014680    -2327.014680    -2327.188648  0.000007 -3.497629  0.001389
     spin moment: S , {S} =    1.76854   1.76854   0.00000   0.00000
   scf:  641    -2327.014680    -2327.014680    -2327.188648  0.000007 -3.497631  0.001382
     spin moment: S , {S} =    1.76866   1.76866   0.00000   0.00000
   scf:  642    -2327.014680    -2327.014680    -2327.188648  0.000007 -3.497633  0.001375
     spin moment: S , {S} =    1.76878   1.76878   0.00000   0.00000
   scf:  643    -2327.014680    -2327.014680    -2327.188648  0.000007 -3.497635  0.001368
     spin moment: S , {S} =    1.76890   1.76890   0.00000   0.00000
   scf:  644    -2327.014680    -2327.014680    -2327.188649  0.000007 -3.497637  0.001361
     spin moment: S , {S} =    1.76902   1.76902   0.00000   0.00000
   scf:  645    -2327.014680    -2327.014680    -2327.188649  0.000007 -3.497639  0.001354
     spin moment: S , {S} =    1.76914   1.76914   0.00000   0.00000
   scf:  646    -2327.014680    -2327.014680    -2327.188649  0.000007 -3.497641  0.001347
     spin moment: S , {S} =    1.76926   1.76926   0.00000   0.00000
   scf:  647    -2327.014680    -2327.014680    -2327.188649  0.000007 -3.497643  0.001340
     spin moment: S , {S} =    1.76938   1.76938   0.00000   0.00000
   scf:  648    -2327.014680    -2327.014680    -2327.188649  0.000007 -3.497645  0.001333
     spin moment: S , {S} =    1.76950   1.76950   0.00000   0.00000
   scf:  649    -2327.014680    -2327.014680    -2327.188649  0.000007 -3.497647  0.001326
     spin moment: S , {S} =    1.76962   1.76962   0.00000   0.00000
   scf:  650    -2327.014680    -2327.014680    -2327.188649  0.000007 -3.497649  0.001320
     spin moment: S , {S} =    1.76973   1.76973   0.00000   0.00000
   scf:  651    -2327.014680    -2327.014680    -2327.188649  0.000007 -3.497651  0.001313
     spin moment: S , {S} =    1.76985   1.76985   0.00000   0.00000
   scf:  652    -2327.014680    -2327.014680    -2327.188650  0.000007 -3.497653  0.001306
     spin moment: S , {S} =    1.76996   1.76996   0.00000   0.00000
   scf:  653    -2327.014680    -2327.014680    -2327.188650  0.000007 -3.497655  0.001300
     spin moment: S , {S} =    1.77008   1.77008   0.00000   0.00000
   scf:  654    -2327.014680    -2327.014680    -2327.188650  0.000007 -3.497657  0.001293
     spin moment: S , {S} =    1.77019   1.77019   0.00000   0.00000
   scf:  655    -2327.014680    -2327.014680    -2327.188650  0.000007 -3.497658  0.001286
     spin moment: S , {S} =    1.77031   1.77031   0.00000   0.00000
   scf:  656    -2327.014680    -2327.014680    -2327.188650  0.000007 -3.497660  0.001280
     spin moment: S , {S} =    1.77042   1.77042   0.00000   0.00000
   scf:  657    -2327.014680    -2327.014680    -2327.188650  0.000007 -3.497662  0.001273
     spin moment: S , {S} =    1.77053   1.77053   0.00000   0.00000
   scf:  658    -2327.014680    -2327.014680    -2327.188650  0.000007 -3.497664  0.001267
     spin moment: S , {S} =    1.77064   1.77064   0.00000   0.00000
   scf:  659    -2327.014680    -2327.014680    -2327.188650  0.000007 -3.497666  0.001260
     spin moment: S , {S} =    1.77076   1.77076   0.00000   0.00000
   scf:  660    -2327.014680    -2327.014680    -2327.188650  0.000007 -3.497668  0.001254
     spin moment: S , {S} =    1.77087   1.77087   0.00000   0.00000
   scf:  661    -2327.014680    -2327.014680    -2327.188651  0.000007 -3.497670  0.001247
     spin moment: S , {S} =    1.77098   1.77098   0.00000   0.00000
   scf:  662    -2327.014680    -2327.014680    -2327.188651  0.000006 -3.497671  0.001241
     spin moment: S , {S} =    1.77109   1.77109   0.00000   0.00000
   scf:  663    -2327.014680    -2327.014680    -2327.188651  0.000006 -3.497673  0.001235
     spin moment: S , {S} =    1.77119   1.77119   0.00000   0.00000
   scf:  664    -2327.014680    -2327.014680    -2327.188651  0.000006 -3.497675  0.001228
     spin moment: S , {S} =    1.77130   1.77130   0.00000   0.00000
   scf:  665    -2327.014680    -2327.014680    -2327.188651  0.000006 -3.497677  0.001222
     spin moment: S , {S} =    1.77141   1.77141   0.00000   0.00000
   scf:  666    -2327.014680    -2327.014680    -2327.188651  0.000006 -3.497679  0.001216
     spin moment: S , {S} =    1.77152   1.77152   0.00000   0.00000
   scf:  667    -2327.014680    -2327.014680    -2327.188651  0.000006 -3.497681  0.001210
     spin moment: S , {S} =    1.77163   1.77163   0.00000   0.00000
   scf:  668    -2327.014680    -2327.014680    -2327.188651  0.000006 -3.497682  0.001204
     spin moment: S , {S} =    1.77173   1.77173   0.00000   0.00000
   scf:  669    -2327.014680    -2327.014680    -2327.188651  0.000006 -3.497684  0.001197
     spin moment: S , {S} =    1.77184   1.77184   0.00000   0.00000
   scf:  670    -2327.014680    -2327.014680    -2327.188652  0.000006 -3.497686  0.001191
     spin moment: S , {S} =    1.77194   1.77194   0.00000   0.00000
   scf:  671    -2327.014680    -2327.014680    -2327.188652  0.000006 -3.497688  0.001185
     spin moment: S , {S} =    1.77205   1.77205   0.00000   0.00000
   scf:  672    -2327.014680    -2327.014680    -2327.188652  0.000006 -3.497689  0.001179
     spin moment: S , {S} =    1.77215   1.77215   0.00000   0.00000
   scf:  673    -2327.014680    -2327.014680    -2327.188652  0.000006 -3.497691  0.001173
     spin moment: S , {S} =    1.77226   1.77226   0.00000   0.00000
   scf:  674    -2327.014679    -2327.014680    -2327.188652  0.000006 -3.497693  0.001167
     spin moment: S , {S} =    1.77236   1.77236   0.00000   0.00000
   scf:  675    -2327.014679    -2327.014679    -2327.188652  0.000006 -3.497695  0.001161
     spin moment: S , {S} =    1.77246   1.77246   0.00000   0.00000
   scf:  676    -2327.014679    -2327.014679    -2327.188652  0.000006 -3.497696  0.001155
     spin moment: S , {S} =    1.77256   1.77256   0.00000   0.00000
   scf:  677    -2327.014679    -2327.014679    -2327.188652  0.000006 -3.497698  0.001149
     spin moment: S , {S} =    1.77266   1.77266   0.00000   0.00000
   scf:  678    -2327.014679    -2327.014679    -2327.188652  0.000006 -3.497700  0.001144
     spin moment: S , {S} =    1.77277   1.77277   0.00000   0.00000
   scf:  679    -2327.014679    -2327.014679    -2327.188652  0.000006 -3.497702  0.001138
     spin moment: S , {S} =    1.77287   1.77287   0.00000   0.00000
   scf:  680    -2327.014679    -2327.014679    -2327.188652  0.000006 -3.497703  0.001132
     spin moment: S , {S} =    1.77297   1.77297   0.00000   0.00000
   scf:  681    -2327.014679    -2327.014679    -2327.188653  0.000006 -3.497705  0.001126
     spin moment: S , {S} =    1.77307   1.77307   0.00000   0.00000
   scf:  682    -2327.014679    -2327.014679    -2327.188653  0.000006 -3.497707  0.001120
     spin moment: S , {S} =    1.77316   1.77316   0.00000   0.00000
   scf:  683    -2327.014679    -2327.014679    -2327.188653  0.000006 -3.497708  0.001115
     spin moment: S , {S} =    1.77326   1.77326   0.00000   0.00000
   scf:  684    -2327.014679    -2327.014679    -2327.188653  0.000006 -3.497710  0.001109
     spin moment: S , {S} =    1.77336   1.77336   0.00000   0.00000
   scf:  685    -2327.014679    -2327.014679    -2327.188653  0.000006 -3.497712  0.001103
     spin moment: S , {S} =    1.77346   1.77346   0.00000   0.00000
   scf:  686    -2327.014679    -2327.014679    -2327.188653  0.000006 -3.497713  0.001098
     spin moment: S , {S} =    1.77355   1.77355   0.00000   0.00000
   scf:  687    -2327.014679    -2327.014679    -2327.188653  0.000006 -3.497715  0.001092
     spin moment: S , {S} =    1.77365   1.77365   0.00000   0.00000
   scf:  688    -2327.014679    -2327.014679    -2327.188653  0.000006 -3.497717  0.001087
     spin moment: S , {S} =    1.77375   1.77375   0.00000   0.00000
   scf:  689    -2327.014679    -2327.014679    -2327.188653  0.000006 -3.497718  0.001081
     spin moment: S , {S} =    1.77384   1.77384   0.00000   0.00000
   scf:  690    -2327.014679    -2327.014679    -2327.188653  0.000006 -3.497720  0.001076
     spin moment: S , {S} =    1.77394   1.77394   0.00000   0.00000
   scf:  691    -2327.014679    -2327.014679    -2327.188653  0.000006 -3.497722  0.001070
     spin moment: S , {S} =    1.77403   1.77403   0.00000   0.00000
   scf:  692    -2327.014679    -2327.014679    -2327.188653  0.000006 -3.497723  0.001065
     spin moment: S , {S} =    1.77413   1.77413   0.00000   0.00000
   scf:  693    -2327.014679    -2327.014679    -2327.188654  0.000006 -3.497725  0.001059
     spin moment: S , {S} =    1.77422   1.77422   0.00000   0.00000
   scf:  694    -2327.014679    -2327.014679    -2327.188654  0.000005 -3.497727  0.001054
     spin moment: S , {S} =    1.77431   1.77431   0.00000   0.00000
   scf:  695    -2327.014679    -2327.014679    -2327.188654  0.000005 -3.497728  0.001048
     spin moment: S , {S} =    1.77440   1.77440   0.00000   0.00000
   scf:  696    -2327.014679    -2327.014679    -2327.188654  0.000005 -3.497730  0.001043
     spin moment: S , {S} =    1.77450   1.77450   0.00000   0.00000
   scf:  697    -2327.014679    -2327.014679    -2327.188654  0.000005 -3.497731  0.001038
     spin moment: S , {S} =    1.77459   1.77459   0.00000   0.00000
   scf:  698    -2327.014679    -2327.014679    -2327.188654  0.000005 -3.497733  0.001032
     spin moment: S , {S} =    1.77468   1.77468   0.00000   0.00000
   scf:  699    -2327.014679    -2327.014679    -2327.188654  0.000005 -3.497734  0.001027
     spin moment: S , {S} =    1.77477   1.77477   0.00000   0.00000
   scf:  700    -2327.014679    -2327.014679    -2327.188654  0.000005 -3.497736  0.001022
     spin moment: S , {S} =    1.77486   1.77486   0.00000   0.00000
   scf:  701    -2327.014679    -2327.014679    -2327.188654  0.000005 -3.497738  0.001017
     spin moment: S , {S} =    1.77495   1.77495   0.00000   0.00000
   scf:  702    -2327.014679    -2327.014679    -2327.188654  0.000005 -3.497739  0.001012
     spin moment: S , {S} =    1.77504   1.77504   0.00000   0.00000
   scf:  703    -2327.014679    -2327.014679    -2327.188654  0.000005 -3.497741  0.001006
     spin moment: S , {S} =    1.77513   1.77513   0.00000   0.00000
   scf:  704    -2327.014679    -2327.014679    -2327.188654  0.000005 -3.497742  0.001001
     spin moment: S , {S} =    1.77522   1.77522   0.00000   0.00000
   scf:  705    -2327.014679    -2327.014679    -2327.188654  0.000005 -3.497744  0.000996
     spin moment: S , {S} =    1.77530   1.77530   0.00000   0.00000

SCF Convergence by DM+H criterion
max |DM_out - DM_in|         :     0.0000051908
max |H_out - H_in|      (eV) :     0.0009961200
SCF cycle converged after 705 iterations

Using DM_out to compute the final energy and forces
No. of atoms with KB's overlaping orbs in proc 0. Max # of overlaps:       3      45

siesta: E_KS(eV) =            -2327.0147

siesta: E_KS - E_eggbox =     -2327.0147
     spin moment: S , {S} =    1.77530   1.77530   0.00000   0.00000

siesta: Atomic forces (eV/Ang):
----------------------------------------
   Tot   -0.000000   -0.000000   -0.000000
----------------------------------------
   Max    0.056809
   Res    0.026780    sqrt( Sum f_i^2 / 3N )
----------------------------------------
   Max    0.056809    constrained

Stress tensor Voigt[x,y,z,yz,xz,xy] (kbar):        6.66        6.66       -1.56       -0.00       -0.00        0.00
(Free)E + p*V (eV/cell)    -2328.2336
Target enthalpy (eV/cell)    -2327.1887

mulliken: Atomic and Orbital Populations:

Species: fe_nc               

Atom      Orb        Charge      Spin       Svec
----------------------------------------------------------------
    1  1 4s         1.33941   0.02188     -0.014   0.000  -0.017
    1  2 4s         0.10625   0.06316      0.004   0.000   0.063
    1  3 3dxy       1.22804   0.65156      0.057   0.000   0.649
    1  4 3dyz       1.24663   0.48500     -0.001   0.000   0.485
    1  5 3dz2       1.27158   0.47651      0.010   0.000   0.476
    1  6 3dxz       1.24663   0.48500     -0.001   0.000   0.485
    1  7 3dx2-y2    1.22664   0.65301      0.057   0.000   0.650
    1  8 3dxy       0.04754   0.06832      0.009   0.000   0.068
    1  9 3dyz       0.03198   0.06029      0.004   0.000   0.060
    1 10 3dz2       0.07234   0.04663      0.003   0.000   0.047
    1 11 3dxz       0.03198   0.06029      0.004   0.000   0.060
    1 12 3dx2-y2    0.04752   0.06829      0.009   0.000   0.068
    1 13 4Ppy       0.02838   0.00572      0.001   0.000  -0.006
    1 14 4Ppz       0.00639   0.00473      0.004   0.000   0.002
    1 15 4Ppx       0.02838   0.00572      0.001   0.000  -0.006
    1     Total     7.95969   3.08835      0.150   0.000   3.085

    2  1 4s         0.86573   0.01538     -0.015   0.000   0.000
    2  2 4s         0.19009   0.03206      0.032   0.000   0.000
    2  3 3dxy       1.43242   0.46885      0.469   0.000   0.000
    2  4 3dyz       1.29861   0.11938      0.119   0.000  -0.000
    2  5 3dz2       1.17797   0.13281      0.133   0.000   0.000
    2  6 3dxz       1.29861   0.11938      0.119   0.000  -0.000
    2  7 3dx2-y2    1.43209   0.46924      0.469   0.000   0.000
    2  8 3dxy       0.00171   0.03719      0.037   0.000  -0.000
    2  9 3dyz      -0.01661   0.01893      0.019   0.000  -0.000
    2 10 3dz2       0.07441   0.00961      0.010   0.000  -0.000
    2 11 3dxz      -0.01661   0.01893      0.019   0.000  -0.000
    2 12 3dx2-y2    0.00165   0.03715      0.037   0.000  -0.000
    2 13 4Ppy       0.11942   0.01152      0.012   0.000  -0.000
    2 14 4Ppz       0.10172   0.00402      0.004   0.000   0.000
    2 15 4Ppx       0.11942   0.01152      0.012   0.000  -0.000
    2     Total     8.08063   1.47521      1.475   0.000   0.000

    3  1 4s         1.33941   0.02188     -0.014   0.000   0.017
    3  2 4s         0.10625   0.06316      0.004   0.000  -0.063
    3  3 3dxy       1.22804   0.65156      0.057   0.000  -0.649
    3  4 3dyz       1.24663   0.48500     -0.001   0.000  -0.485
    3  5 3dz2       1.27158   0.47651      0.010   0.000  -0.476
    3  6 3dxz       1.24663   0.48500     -0.001   0.000  -0.485
    3  7 3dx2-y2    1.22664   0.65301      0.057   0.000  -0.650
    3  8 3dxy       0.04754   0.06832      0.009   0.000  -0.068
    3  9 3dyz       0.03198   0.06029      0.004   0.000  -0.060
    3 10 3dz2       0.07234   0.04663      0.003   0.000  -0.047
    3 11 3dxz       0.03198   0.06029      0.004   0.000  -0.060
    3 12 3dx2-y2    0.04752   0.06829      0.009   0.000  -0.068
    3 13 4Ppy       0.02838   0.00572      0.001   0.000   0.006
    3 14 4Ppz       0.00639   0.00473      0.004   0.000  -0.002
    3 15 4Ppx       0.02838   0.00572      0.001   0.000   0.006
    3     Total     7.95969   3.08835      0.150   0.000  -3.085

----------------------------------------------------------------
Total              24.00000   1.77530      1.775   0.000   0.000


siesta: Program's energy decomposition (eV):
siesta: Ebs     =      -138.244151
siesta: Eions   =      2141.484345
siesta: Ena     =        95.469235
siesta: Ekin    =      2356.534541
siesta: Enl     =     -1464.235389
siesta: Eso     =         0.000000
siesta: Edftu   =         0.000000
siesta: DEna    =       -28.366089
siesta: DUscf   =         2.904841
siesta: DUext   =         0.000000
siesta: Exc     =     -1147.837471
siesta: eta*DQ  =         0.000000
siesta: Emadel  =         0.000000
siesta: Emeta   =         0.000000
siesta: Emolmec =         0.000000
siesta: Ekinion =         0.000000
siesta: Eharris =     -2327.014679
siesta: Etot    =     -2327.014679
siesta: FreeEng =     -2327.188654

siesta: Final energy (eV):
siesta:  Band Struct. =    -138.244151
siesta:       Kinetic =    2356.534541
siesta:       Hartree =    1407.459208
siesta:       Edftu   =       0.000000
siesta:       Eso     =       0.000000
siesta:    Ext. field =       0.000000
siesta:   Exch.-corr. =   -1147.837471
siesta:  Ion-electron =   -4749.473105
siesta:       Ion-ion =    -193.697851
siesta:       Ekinion =       0.000000
siesta:         Total =   -2327.014679
siesta:         Fermi =      -3.497744

siesta: Atomic forces (eV/Ang):
siesta:      1    0.000000    0.000000   -0.056809
siesta:      2   -0.000000   -0.000000    0.000000
siesta:      3   -0.000000   -0.000000    0.056809
siesta: ----------------------------------------
siesta:    Tot   -0.000000   -0.000000   -0.000000

siesta: Stress tensor (static) (eV/Ang**3):
siesta:     0.004160    0.000000   -0.000000
siesta:     0.000000    0.004160   -0.000000
siesta:    -0.000000   -0.000000   -0.000974

siesta: Cell volume =        426.771459 Ang**3

siesta: Pressure (static):
siesta:                Solid            Molecule  Units
siesta:          -0.00002667         -0.00002480  Ry/Bohr**3
siesta:          -0.00244850         -0.00227738  eV/Ang**3
siesta:          -3.92297298         -3.64879957  kBar
(Free)E+ p_basis*V_orbitals  =       -2324.918726
(Free)Eharris+ p_basis*V_orbitals  =       -2324.918726
     spin moment: S , {S} =    1.77530   1.77530   0.00000   0.00000

cite: Please see "mix_linear.bib" for an exhaustive BiBTeX file.
cite: Please clearly indicate Siesta version in published work: v4.1-b4-351
cite: This calculation has made use of the following articles
cite: which are encouraged to be cited in a published work.
        Primary SIESTA paper
          DOI: www.doi.org/10.1088/0953-8984/14/11/302

>> End of run:  22-JAN-2021  23:15:17
Job completed
