Siesta Version: siesta-3.2
Architecture  : SIESTA_ARCH
Compiler flags: FFLAGS
PARALLEL version
NetCDF support

* Running on    4 nodes in parallel
>> Start of run:  24-MAR-2013  18:29:56

                           ***********************       
                           *  WELCOME TO SIESTA  *       
                           ***********************       

reinit: Reading from standard input
************************** Dump of input data file ****************************
SystemName          N chain
SystemLabel         n_chain
NumberOfAtoms       1
NumberOfSpecies     1
MeshCutoff  50 Ry
%block ChemicalSpeciesLabel
 1  7  N
%endblock ChemicalSpeciesLabel
PAO.BasisSize SZ
LatticeConstant 1.0 Ang
%block LatticeVectors
8.0 0.0 0.0
0.0 8.0 0.0
0.0 0.0 2.0
%endblock LatticeVectors
%block kgrid_Monkhorst_Pack
1 0 0  0.0
0 1 0  0.0
0 0 50 0.0
%endblock kgrid_Monkhorst_Pack
AtomicCoordinatesFormat  Ang
%block AtomicCoordinatesAndAtomicSpecies
 2.000  2.000  1.000  1
%endblock AtomicCoordinatesAndAtomicSpecies
COOP.Write T
%block Projected-density-of-states
-20.00 4.00 0.500 500 eV
%endblock Projected-density-of-states
************************** End of input data file *****************************

reinit: -----------------------------------------------------------------------
reinit: System Name: N chain
reinit: -----------------------------------------------------------------------
reinit: System Label: n_chain                                                     
reinit: -----------------------------------------------------------------------

initatom: Reading input for the pseudopotentials and atomic orbitals ----------
 Species number:            1  Label: N Atomic number:           7
Ground state valence configuration:   2s02  2p03
Reading pseudopotential information in formatted form from N.psf

Valence configuration for pseudopotential generation:
2s( 2.00) rc: 1.14
2p( 3.00) rc: 1.14
3d( 0.00) rc: 1.14
4f( 0.00) rc: 1.14
For N, standard SIESTA heuristics set lmxkb to 2
 (one more than the basis l, including polarization orbitals).
Use PS.lmax or PS.KBprojectors blocks to override.

<basis_specs>
===============================================================================
N                    Z=   7    Mass=  14.010        Charge= 0.17977+309
Lmxo=1 Lmxkb= 2    BasisType=split      Semic=F
L=0  Nsemic=0  Cnfigmx=2
          n=1  nzeta=1  polorb=0
            splnorm:   0.15000    
               vcte:    0.0000    
               rinn:    0.0000    
                rcs:    0.0000    
            lambdas:    1.0000    
L=1  Nsemic=0  Cnfigmx=2
          n=1  nzeta=1  polorb=0
            splnorm:   0.15000    
               vcte:    0.0000    
               rinn:    0.0000    
                rcs:    0.0000    
            lambdas:    1.0000    
-------------------------------------------------------------------------------
L=0  Nkbl=1  erefs: 0.17977+309
L=1  Nkbl=1  erefs: 0.17977+309
L=2  Nkbl=1  erefs: 0.17977+309
===============================================================================
</basis_specs>

atom: Called for N                     (Z =   7)

read_vps: Pseudopotential generation method:
read_vps: ATM 3.2.2 Troullier-Martins                       
Total valence charge:    5.00000

xc_check: Exchange-correlation functional:
xc_check: Ceperley-Alder
V l=0 = -2*Zval/r beyond r=  1.1958
V l=1 = -2*Zval/r beyond r=  1.1958
V l=2 = -2*Zval/r beyond r=  1.1958
All V_l potentials equal beyond r=  1.1233
This should be close to max(r_c) in ps generation
All pots = -2*Zval/r beyond r=  1.1958

VLOCAL1: 99.0% of the norm of Vloc inside     34.401 Ry
VLOCAL1: 99.9% of the norm of Vloc inside     78.401 Ry
atom: Maximum radius for 4*pi*r*r*local-pseudopot. charge    1.35504
atom: Maximum radius for r*vlocal+2*Zval:    1.18092
GHOST: No ghost state for L =  0
GHOST: No ghost state for L =  1
GHOST: No ghost state for L =  2

KBgen: Kleinman-Bylander projectors: 
   l= 0   rc=  1.406829   el= -1.352238   Ekb=  9.654792   kbcos=  0.296969
   l= 1   rc=  1.406829   el= -0.532622   Ekb= -6.526027   kbcos= -0.327655
   l= 2   rc=  1.614250   el=  0.002346   Ekb= -1.736131   kbcos= -0.003799

KBgen: Total number of  Kleinman-Bylander projectors:    9
atom: -------------------------------------------------------------------------

atom: SANKEY-TYPE ORBITALS:

SPLIT: Orbitals with angular momentum L= 0

SPLIT: Basis orbitals for state 2s

SPLIT: PAO cut-off radius determined from an
SPLIT: energy shift=  0.020000 Ry

   izeta = 1
                 lambda =    1.000000
                     rc =    3.683980
                 energy =   -1.333791
                kinetic =    1.257053
    potential(screened) =   -2.590844
       potential(ionic) =   -8.165674

SPLIT: Orbitals with angular momentum L= 1

SPLIT: Basis orbitals for state 2p

SPLIT: PAO cut-off radius determined from an
SPLIT: energy shift=  0.020000 Ry

   izeta = 1
                 lambda =    1.000000
                     rc =    4.280232
                 energy =   -0.512460
                kinetic =    3.775375
    potential(screened) =   -4.287835
       potential(ionic) =   -9.745937
atom: Total number of Sankey-type orbitals:  4

atm_pop: Valence configuration (for local Pseudopot. screening):
 2s( 2.00)                                                            
 2p( 3.00)                                                            
Vna: chval, zval:    5.00000   5.00000

Vna:  Cut-off radius for the neutral-atom potential:   4.280232

atom: _________________________________________________________________________

prinput: Basis input ----------------------------------------------------------

PAO.BasisType split     

%block ChemicalSpeciesLabel
    1    7 N                       # Species index, atomic number, species label
%endblock ChemicalSpeciesLabel

%block PAO.Basis                 # Define Basis set
N                     2                    # Species label, number of l-shells
 n=2   0   1                         # n, l, Nzeta 
   3.684   
   1.000   
 n=2   1   1                         # n, l, Nzeta 
   4.280   
   1.000   
%endblock PAO.Basis

prinput: ----------------------------------------------------------------------

Dumping basis to NetCDF file N.ion.nc
coor:   Atomic-coordinates input format  =     Cartesian coordinates
coor:                                          (in Angstroms)

siesta: Atomic coordinates (Bohr) and species
siesta:      3.77945   3.77945   1.88973  1        1

siesta: System type = chain     

initatomlists: Number of atoms, orbitals, and projectors:      1     4     9

siesta: ******************** Simulation parameters ****************************
siesta:
siesta: The following are some of the parameters of the simulation.
siesta: A complete list of the parameters used, including default values,
siesta: can be found in file out.fdf
siesta:
redata: Non-Collinear-spin run           =     F
redata: SpinPolarized (Up/Down) run      =     F
redata: Number of spin components        =     1
redata: Long output                      =     F
redata: Number of Atomic Species         =        1
redata: Charge density info will appear in .RHO file
redata: Write Mulliken Pop.              =     NO
redata: Mesh Cutoff                      =    50.0000  Ry
redata: Net charge of the system         =     0.0000 |e|
redata: Max. number of SCF Iter          =       50
redata: Mixing is linear
redata: Mix DM in first SCF step ?       =     F
redata: Write Pulay info on disk?        =     F
redata: Discard 1st Pulay DM after  kick =     F
redata: New DM Mixing Weight             =     0.2500
redata: New DM Occupancy tolerance       = 0.000000000001
redata: No kicks to SCF
redata: DM Mixing Weight for Kicks       =     0.5000
redata: DM Tolerance for SCF             =     0.000100
redata: Require Energy convergence for SCF =     F
redata: DM Energy tolerance for SCF      =     0.000100 eV
redata: Require Harris convergence for SCF =     F
redata: DM Harris energy tolerance for SCF =     0.000100 eV
redata: Using Saved Data (generic)   =     F
redata: Use continuation files for DM    =     F
redata: Neglect nonoverlap interactions  =     F
redata: Method of Calculation            =     Diagonalization
redata: Divide and Conquer               =     T
redata: Electronic Temperature           =     0.0019  Ry
redata: Fix the spin of the system       =     F
redata: Dynamics option                  =     Verlet MD run
redata: Initial MD time step             =        1
redata:   Final MD time step             =        1
redata: Length of MD time step           =     1.0000  fs
redata: Initial Temperature of MD run    =     0.0000  K
redata: Perform a MD quench              =     F
redata: ***********************************************************************
Total number of electrons:     5.000000
Total ionic charge:     5.000000

* ProcessorY, Blocksize:    2   1

k-point displ. along   3 input, could be:     0.00    0.50
 Kpoints in:           26 . Kpoints trimmed:           26

siesta: k-grid: Number of k-points =    26
siesta: k-grid: Cutoff (effective) =     4.000 Ang
siesta: k-grid: Supercell and displacements
siesta: k-grid:    1   0   0      0.000
siesta: k-grid:    0   1   0      0.000
siesta: k-grid:    0   0  50      0.000
Naive supercell factors:     2    2    7

superc: Internal auxiliary supercell:     2 x     2 x     7  =      28
superc: Number of atoms, orbitals, and projectors:     28    112    252

* Maximum dynamic memory allocated =     1 MB

siesta:                 ==============================
                            Begin MD step =      1
                        ==============================

superc: Internal auxiliary supercell:     2 x     2 x     7  =      28
superc: Number of atoms, orbitals, and projectors:     28    112    252

outcell: Unit cell vectors (Ang):
        8.000000    0.000000    0.000000
        0.000000    8.000000    0.000000
        0.000000    0.000000    2.000000

outcell: Cell vector modules (Ang)   :    8.000000    8.000000    2.000000
outcell: Cell angles (23,13,12) (deg):     90.0000     90.0000     90.0000
outcell: Cell volume (Ang**3)        :    128.0000
New_DM. Step:     1
Initializing Density Matrix...

InitMesh: MESH =    36 x    36 x    10 =       12960
InitMesh: Mesh cutoff (required, used) =    50.000    55.966 Ry

* Maximum dynamic memory allocated =     2 MB

stepf: Fermi-Dirac step function

siesta: Program's energy decomposition (eV):
siesta: Ebs     =       -51.179395
siesta: Eions   =       541.360355
siesta: Ena     =       160.337859
siesta: Ekin    =       188.302371
siesta: Enl     =        -6.545309
siesta: DEna    =        -0.000001
siesta: DUscf   =         0.000000
siesta: DUext   =         0.000000
siesta: Exc     =       -62.464745
siesta: eta*DQ  =         0.000000
siesta: Emadel  =         0.000000
siesta: Emeta   =         0.000000
siesta: Emolmec =         0.000000
siesta: Ekinion =         0.000000
siesta: Eharris =      -264.523006
siesta: Etot    =      -261.730181
siesta: FreeEng =      -261.730181

siesta: iscf   Eharris(eV)      E_KS(eV)   FreeEng(eV)   dDmax  Ef(eV)
siesta:    1     -264.5230     -261.7302     -261.7302  0.5830 -4.7200
timer: Routine,Calls,Time,% = IterSCF        1       0.351  25.32
elaps: Routine,Calls,Wall,% = IterSCF        1       0.089  22.47
siesta:    2     -264.4546     -264.4545     -264.4556  0.0016 -5.7362
siesta:    3     -264.4546     -264.4545     -264.4556  0.0012 -5.7358
siesta:    4     -264.4546     -264.4545     -264.4556  0.0009 -5.7355
siesta:    5     -264.4546     -264.4545     -264.4557  0.0007 -5.7353
siesta:    6     -264.4546     -264.4545     -264.4557  0.0005 -5.7352
siesta:    7     -264.4546     -264.4545     -264.4557  0.0004 -5.7350
siesta:    8     -264.4546     -264.4545     -264.4557  0.0003 -5.7349
siesta:    9     -264.4546     -264.4545     -264.4557  0.0002 -5.7349
siesta:   10     -264.4546     -264.4546     -264.4557  0.0002 -5.7348
siesta:   11     -264.4546     -264.4546     -264.4557  0.0001 -5.7348
siesta:   12     -264.4546     -264.4546     -264.4557  0.0001 -5.7348

siesta: E_KS(eV) =             -264.4546

siesta: E_KS - E_eggbox =      -264.4546

siesta: Atomic forces (eV/Ang):
----------------------------------------
   Tot   -0.000000   -0.000000   -0.000000
----------------------------------------
   Max    0.000000
   Res    0.000000    sqrt( Sum f_i^2 / 3N )
----------------------------------------
   Max    0.000000    constrained

Stress-tensor-Voigt (kbar):        1.19        1.19      107.87       -0.00       -0.00       -0.00
(Free)E + p*V (eV/cell)     -267.3920
Target enthalpy (eV/cell)     -264.4557

siesta: Stress tensor (static) (eV/Ang**3):
         0.000746   -0.000000   -0.000000
        -0.000000    0.000746   -0.000000
        -0.000000   -0.000000    0.067328

siesta: Pressure (static):        -36.75421305  kBar

siesta: Stress tensor (total) (eV/Ang**3):
         0.000746   -0.000000   -0.000000
        -0.000000    0.000746   -0.000000
        -0.000000   -0.000000    0.067328

siesta: Pressure (total):        -36.75421305  kBar

siesta: Temp_ion =       0.000 K

* Maximum dynamic memory allocated =     2 MB
Writing WFSX for COOP/COHP in n_chain.fullBZ.WFSX
siesta: PDOS info: 
siesta: e1, e2, sigma, nhist:   -20.00 eV    4.00 eV    0.50 eV    500

siesta: Program's energy decomposition (eV):
siesta: Ebs     =       -56.372253
siesta: Eions   =       541.360355
siesta: Ena     =       160.337859
siesta: Ekin    =       175.970648
siesta: Enl     =        -4.581326
siesta: DEna    =         6.225105
siesta: DUscf   =         0.121553
siesta: DUext   =         0.000000
siesta: Exc     =       -61.168044
siesta: eta*DQ  =         0.000000
siesta: Emadel  =         0.000000
siesta: Emeta   =         0.000000
siesta: Emolmec =         0.000000
siesta: Ekinion =         0.000000
siesta: Eharris =      -264.454566
siesta: Etot    =      -264.454560
siesta: FreeEng =      -264.455672

siesta: Final energy (eV):
siesta:  Band Struct. =     -56.372253
siesta:       Kinetic =     175.970648
siesta:       Hartree =     223.007727
siesta:    Ext. field =       0.000000
siesta:   Exch.-corr. =     -61.168044
siesta:  Ion-electron =    -598.327492
siesta:       Ion-ion =      -3.937399
siesta:       Ekinion =       0.000000
siesta:         Total =    -264.454560

siesta: Stress tensor (static) (eV/Ang**3):
siesta:     0.000746   -0.000000   -0.000000
siesta:    -0.000000    0.000746   -0.000000
siesta:    -0.000000   -0.000000    0.067328

siesta: Cell volume =        128.000000 Ang**3

siesta: Pressure (static):
siesta:                Solid            Molecule  Units
siesta:          -0.00024985         -0.00024985  Ry/Bohr**3
siesta:          -0.02293993         -0.02293993  eV/Ang**3
siesta:         -36.75421305        -36.75421305  kBar
(Free)E+ p_basis*V_orbitals  =        -264.356174
(Free)Eharris+ p_basis*V_orbitals  =        -264.356178

siesta: Electric dipole (a.u.)  =    0.000000    0.000000   -0.000000
siesta: Electric dipole (Debye) =    0.000000    0.000000   -0.000000

* Maximum dynamic memory allocated : Node    0 =     2 MB
* Maximum dynamic memory allocated : Node    1 =     2 MB
* Maximum dynamic memory allocated : Node    2 =     2 MB
* Maximum dynamic memory allocated : Node    3 =     2 MB

* Maximum memory occured during ranger                        

timer: CPU execution times:
timer:  Routine       Calls   Time/call    Tot.time        %
timer:  siesta            1       3.294       3.294   100.00
timer:  Setup             1       1.013       1.013    30.74
timer:  bands             1       0.000       0.000     0.00
timer:  writewave         2       0.039       0.079     2.40
timer:  KSV_init          1       0.000       0.000     0.00
timer:  IterMD            1       2.021       2.021    61.34
timer:  hsparse           1       0.000       0.000     0.00
timer:  overlap           1       0.015       0.015     0.46
timer:  IterSCF          12       0.162       1.948    59.12
timer:  kinefsm           2       0.003       0.007     0.21
timer:  nlefsm            2       0.068       0.136     4.13
timer:  DHSCF            13       0.014       0.181     5.49
timer:  DHSCF1            1       0.020       0.020     0.61
timer:  DHSCF2            1       0.018       0.018     0.55
timer:  REORD           106       0.000       0.005     0.15
timer:  POISON           14       0.004       0.060     1.82
timer:  DHSCF3           13       0.010       0.136     4.13
timer:  rhoofd           13       0.001       0.008     0.24
timer:  cellXC           13       0.003       0.034     1.03
timer:  vmat             13       0.001       0.015     0.46
timer:  MolMec            2       0.000       0.000     0.00
timer:  diagon           12       0.131       1.576    47.83
timer:  c-eigval        312       0.002       0.748    22.70
timer:  c-buildHS       312       0.000       0.001     0.03
timer:  cdiag           676       0.002       1.663    50.47
timer:  cdiag1          676       0.000       0.179     5.43
timer:  cdiag2          676       0.000       0.292     8.86
timer:  cdiag3          676       0.001       0.972    29.50
timer:  cdiag4          676       0.000       0.073     2.22
timer:  c-eigvec        338       0.003       0.870    26.40
timer:  c-buildD        312       0.000       0.013     0.39
timer:  DHSCF4            1       0.007       0.007     0.21
timer:  dfscf             1       0.007       0.007     0.21
timer:  overfsm           1       0.000       0.000     0.00
timer:  pdos              1       0.087       0.087     2.64
timer:  optical           1       0.066       0.066     2.00
  

elaps: ELAPSED times:
elaps:  Routine       Calls   Time/call    Tot.time        %
elaps:  siesta            1       0.875       0.875    99.89
elaps:  Setup             1       0.299       0.299    34.13
elaps:  bands             1       0.001       0.001     0.11
elaps:  writewave         2       0.010       0.020     2.28
elaps:  KSV_init          1       0.000       0.000     0.00
elaps:  IterMD            1       0.509       0.509    58.11
elaps:  hsparse           1       0.000       0.000     0.00
elaps:  overlap           1       0.003       0.003     0.34
elaps:  IterSCF          12       0.041       0.490    55.94
elaps:  kinefsm           2       0.001       0.001     0.11
elaps:  nlefsm            2       0.017       0.034     3.88
elaps:  DHSCF            13       0.004       0.048     5.48
elaps:  DHSCF1            1       0.005       0.005     0.57
elaps:  DHSCF2            1       0.004       0.004     0.46
elaps:  REORD           106       0.000       0.002     0.23
elaps:  POISON           14       0.001       0.013     1.48
elaps:  DHSCF3           13       0.003       0.036     4.11
elaps:  rhoofd           13       0.000       0.004     0.46
elaps:  cellXC           13       0.001       0.007     0.80
elaps:  vmat             13       0.000       0.006     0.68
elaps:  MolMec            2       0.000       0.000     0.00
elaps:  diagon           12       0.033       0.398    45.43
elaps:  c-eigval        312       0.001       0.190    21.69
elaps:  c-buildHS       312       0.000       0.001     0.11
elaps:  cdiag           676       0.001       0.414    47.26
elaps:  cdiag1          676       0.000       0.045     5.14
elaps:  cdiag2          676       0.000       0.064     7.31
elaps:  cdiag3          676       0.000       0.251    28.65
elaps:  cdiag4          676       0.000       0.014     1.60
elaps:  c-eigvec        338       0.001       0.210    23.97
elaps:  c-buildD        312       0.000       0.005     0.57
elaps:  DHSCF4            1       0.003       0.003     0.34
elaps:  dfscf             1       0.003       0.003     0.34
elaps:  overfsm           1       0.000       0.000     0.00
elaps:  pdos              1       0.035       0.035     4.00
elaps:  optical           1       0.000       0.000     0.00
  
>> End of run:  24-MAR-2013  18:29:56
