Siesta Version  : v4.1-b4-351
Architecture    : x86_64-linux-n-62-26-19
Compiler version: GNU Fortran (GCC) 9.3.0
Compiler flags  : mpifort -m64 -fPIC -O3 -march=native -ftree-vectorize -fexpensive-optimizatioons -funroll-loops -fprefetch-loop-arrays -fno-second-underscore  -flto
PP flags        : -I/dtu/sw/dcc/SL73/2020-aug/generic/build-tools/1.0/include -I/dtu/sw/dcc/SL773/2020-aug/generic/gcc/9.3.0/include -I/dtu/sw/dcc/SL73/2020-aug/generic/gcc/9.3.0/include -I/dtu/sw/dcc/SL73/2020-aug/XeonE5-2660v3/gnu/9.3.0/zlib/1.2.11/include -I/dtu/sw/dcc/SL73/2020-aug/generic/numactl/2.0.12/include -I/dtu/sw/dcc/SL73/2020-aug/XeonE5-2660v3/gnu/9.3.0/libxml2/2.9.10/include -I/dtu/sw/dcc/SL73/2020-aug/XeonE5-2660v3/gnu/9.3.0/hwloc/2.2.0/include -I/dtu/sw/dcc/SL73/2020-aug/XeonE5-2660v3/gnu/9.3.0/knem/1.1.4/include -I/dtu/sw/dcc/SL73/2020-aug/XeonE5-2660v3/gnu/9.3.0/ucx/1.8.1/include -I/dtu/sw/dcc/SL73/2020-aug/XeonE5-2660v3/gnu/9.3.0/openmpi/4.0.4/include -I/dtu/sw/dcc/SL73/2020-aug/XeonE5-2660v3/gnu/9.3.0/szip/2.1.1/include -I/dtu/sw/dcc/SL73/2020-aug/XeonE5-2660v3/gnu/9.3.0/hdf5/1.12.0/include -I/dtu/sw/dcc/SL73/2020-aug/XeonE5-2660v3/gnu/9.3.0/pnetcdf/1.12.1/include -I/dtu/sw/dcc/SL73/2020-aug/generic/gen-zlib/1.2.11/include -I/dtu/sw/dcc/SL73/2020-aug/generic/openssl/1.1.1/include -I/dtu/sw/dcc/SL73/2020-aug/generic/libssh2/1.8.2/include -I/dtu/sw/dcc/SL73/2020-aug/generic/curl/7.65.1/include -I/dtu/sw/dcc/SL73/2020-aug/XeonE5-2660v3/gnu/9.3.0/netcdf/4.7.4/include -I/dtu/sw/dcc/SL73/2020-aug/XeonE5-2660v3/gnu/9.3.0/flook/0.8.1/include -I/dtu/sw/dcc/SL73/2020-aug/XeonE5-2660v3/gnu/9.3.0/fftw/3.3.8/include -I/dtu/sw/dcc/SL73/2020-aug/XeonE5-2660v3/gnu/9.3.0/parmetis/4.0.3/include -I/dtu/sw/dcc/SL73/2020-aug/XeonE5-2660v3/gnu/9.3.0/scalapack/2.1.0/include -I/dtu/sw/dcc/SL73/2020-aug/XeonE5-2660v3/gnu/9.3.0/lapack/3.9.0/include -I/dtu/sw/dcc/SL73/2020-aug/XeonE5-2660v3/gnu/9.3.0/blis/0.7.0/include -I/dtu/sw/dcc/SL73/2020-aug/XeonE5-2660v3/gnu/9.3.0/scotch/6.0.9/include -I/dtu/sw/dcc/SL73/2020-aug/XeonE5-2660v3/gnu/9.3.0/mumps/5.3.3/include -I/dtu/sw/dcc/SL73/2020-aug/XeonE5-2660v3/gnu/9.3.0/elpa/2020.05.001/include -DSIESTA__ELPA -DMPI -DFC_HAVE_FLUSH -DFC_HAVE_ABORT -DCDF -DCDF4 -DSIESTA__FLOOK  -DNCDF -DNCDF_4 -DNCDF_PARALLEL -DTS_NOCHECKS -DSIESTA__METIS -DSIESTA__MUMPS -DSIESTA__MRRR -I/dtu/sw/dcc/SL73/2020-aug/XeonE5-2660v3/gnu/9.3.0/elpa/2020.05.001/include/elpa
Libraries       : libncdf.a libfdict.a -lnetcdff -lnetcdf -lpnetcdf -lhdf5_hl -lhdf5 -lz  -lzmuumps -lmumps_common -lesmumps -lscotch -lscotcherr -lpord -lparmetis -lmetis -lelpa -lscalapack -llapack -lblis  -L/dtu/sw/dcc/SL73/2020-aug/XeonE5-2660v3/gnu/9.3.0/flook/0.8.1/lib -Wl,-rpath=/dtu/sw/dcc/SL73/2020-aug/XeonE5-2660v3/gnu/9.3.0/flook/0.8.1/lib -lflookall -ldl  -flto -fuse-linker-plugin  -lmetis
PARALLEL version
NetCDF support
NetCDF-4 support
NetCDF-4 MPI-IO support
METIS ordering support
Lua support

* Running on 8 nodes in parallel
>> Start of run:  22-JAN-2021  23:15:38

                           ***********************       
                           *  WELCOME TO SIESTA  *       
                           ***********************       

reinit: Reading from ../nanotube-c-5-0.fdf

reinit: -----------------------------------------------------------------------
reinit: System Name: c50tube
reinit: -----------------------------------------------------------------------
reinit: System Label: nanotube-c-5-0
reinit: -----------------------------------------------------------------------

initatom: Reading input for the pseudopotentials and atomic orbitals ----------
Species number:   1 Atomic number:    6 Label: C_2

Ground state valence configuration:   2s02  2p02
Reading pseudopotential information in formatted form from C_2.psf

Valence configuration for pseudopotential generation:
2s( 2.00) rc: 1.25
2p( 2.00) rc: 1.25
3d( 0.00) rc: 1.25
4f( 0.00) rc: 1.25
For C_2, standard SIESTA heuristics set lmxkb to 3
 (one more than the basis l, including polarization orbitals).
Use PS.lmax or PS.KBprojectors blocks to override.

<basis_specs>
===============================================================================
C_2                  Z=   6    Mass=  12.010        Charge= 0.10000E-01
Lmxo=2 Lmxkb= 3    BasisType=split      Semic=F
L=0  Nsemic=0  Cnfigmx=2
          i=1  nzeta=2  polorb=0  (2s)
            splnorm:   0.15000    
               vcte:    0.0000    
               rinn:    0.0000    
               qcoe:    0.0000    
               qyuk:    0.0000    
               qwid:   0.10000E-01
                rcs:    6.0990      4.1920    
            lambdas:    1.0000      1.0000    
L=1  Nsemic=0  Cnfigmx=2
          i=1  nzeta=2  polorb=0  (2p)
            splnorm:   0.15000    
               vcte:    0.0000    
               rinn:    0.0000    
               qcoe:    0.0000    
               qyuk:    0.0000    
               qwid:   0.10000E-01
                rcs:    4.9940      3.1050    
            lambdas:    1.0000      1.0000    
L=2  Nsemic=0  Cnfigmx=3
          i=1  nzeta=1  polorb=0  (3d)
            splnorm:   0.15000    
               vcte:    0.0000    
               rinn:    0.0000    
               qcoe:    0.0000    
               qyuk:    0.0000    
               qwid:   0.10000E-01
                rcs:    4.1920    
            lambdas:    1.0000    
-------------------------------------------------------------------------------
L=0  Nkbl=1  erefs: 0.17977+309
L=1  Nkbl=1  erefs: 0.17977+309
L=2  Nkbl=1  erefs: 0.17977+309
L=3  Nkbl=1  erefs: 0.17977+309
===============================================================================
</basis_specs>

atom: Called for C_2                   (Z =   6)

read_vps: Pseudopotential generation method:
read_vps: ATM3      Troullier-Martins                       
Valence charge for ps generation:    4.00000

xc_check: Exchange-correlation functional:
xc_check: Ceperley-Alder
V l=0 = -2*Zval/r beyond r=  1.3951
V l=1 = -2*Zval/r beyond r=  1.3777
V l=2 = -2*Zval/r beyond r=  1.3777
V l=3 = -2*Zval/r beyond r=  1.3777
All V_l potentials equal beyond r=  1.2311
This should be close to max(r_c) in ps generation
All pots = -2*Zval/r beyond r=  1.3951

VLOCAL1: 99.0% of the norm of Vloc inside     28.641 Ry
VLOCAL1: 99.9% of the norm of Vloc inside     65.273 Ry
atom: Maximum radius for 4*pi*r*r*local-pseudopot. charge    1.48507
atom: Maximum radius for r*vlocal+2*Zval:    1.27815
GHOST: No ghost state for L =  0
GHOST: No ghost state for L =  1
GHOST: No ghost state for L =  2
GHOST: No ghost state for L =  3

KBgen: Kleinman-Bylander projectors: 
   l= 0   rc=  1.600766   el= -1.001946   Ekb=  7.816946   kbcos=  0.279978
   l= 1   rc=  1.620907   el= -0.398597   Ekb= -4.829535   kbcos= -0.287433
   l= 2   rc=  1.836783   el=  0.002326   Ekb= -1.327964   kbcos= -0.005365
   l= 3   rc=  1.979871   el=  0.003420   Ekb= -0.522285   kbcos= -0.000569

KBgen: Total number of  Kleinman-Bylander projectors:   16
atom: -------------------------------------------------------------------------

atom: SANKEY-TYPE ORBITALS:
atom: Selected multiple-zeta basis: split     

atom: basis set generated (by rescaling the valence charge)
atom: for a cation of charge   0.0100

SPLIT: Orbitals with angular momentum L= 0

SPLIT: Basis orbitals for state 2s

   izeta = 1
                 lambda =    1.000000
                     rc =    6.099293
                 energy =   -1.011972
                kinetic =    0.844798
    potential(screened) =   -1.856770
       potential(ionic) =   -5.396745

   izeta = 2
                 rmatch =    4.191849
              splitnorm =    0.061309
                 energy =   -0.961522
                kinetic =    1.115666
    potential(screened) =   -2.077187
       potential(ionic) =   -5.792129

SPLIT: Orbitals with angular momentum L= 1

SPLIT: Basis orbitals for state 2p

   izeta = 1
                 lambda =    1.000000
                     rc =    4.993604
                 energy =   -0.392202
                kinetic =    2.595657
    potential(screened) =   -2.987859
       potential(ionic) =   -6.482023

   izeta = 2
                 rmatch =    3.105291
              splitnorm =    0.227771
                 energy =   -0.119960
                kinetic =    4.461637
    potential(screened) =   -4.581597
       potential(ionic) =   -8.563850

SPLIT: Orbitals with angular momentum L= 2

SPLIT: Basis orbitals for state 3d

   izeta = 1
                 lambda =    1.000000
                     rc =    4.191849
                 energy =    1.177631
                kinetic =    2.007563
    potential(screened) =   -0.829932
       potential(ionic) =   -3.494008
atom: Total number of Sankey-type orbitals: 13

atm_pop: Valence configuration (for local Pseudopot. screening):
 2s( 2.00)                                                            
 2p( 2.00)                                                            
 3d( 0.00)                                                            
Vna: chval, zval:    4.00000   4.00000

Vna:  Cut-off radius for the neutral-atom potential:   6.099293

atom: _________________________________________________________________________

prinput: Basis input ----------------------------------------------------------

PAO.BasisType split     

%block ChemicalSpeciesLabel
    1    6 C_2                     # Species index, atomic number, species label
%endblock ChemicalSpeciesLabel

%block PAO.Basis                 # Define Basis set
C_2                   3   0.010            # Label, l-shells, ionic net charge
 n=2   0   2                         # n, l, Nzeta 
   6.099      4.192   
   1.000      1.000   
 n=2   1   2                         # n, l, Nzeta 
   4.994      3.105   
   1.000      1.000   
 n=3   2   1                         # n, l, Nzeta 
   4.192   
   1.000   
%endblock PAO.Basis

prinput: ----------------------------------------------------------------------

Dumping basis to NetCDF file C_2.ion.nc
coor:   Atomic-coordinates input format  =     Cartesian coordinates
coor:                                          (in Angstroms)

siesta: Atomic coordinates (Bohr) and species
siesta:      3.88935   0.00000  -0.00972  1        1
siesta:      3.14565   2.28802   1.35028  1        2
siesta:      3.14565   2.28802   4.01654  1        3
siesta:      3.88935   0.00000   5.37655  1        4
siesta:      1.20355   3.70229  -0.00945  1        5
siesta:     -1.20355   3.70229   1.35116  1        6
siesta:     -1.20355   3.70229   4.01567  1        7
siesta:      1.20355   3.70229   5.37628  1        8
siesta:     -3.14565   2.28802  -0.00858  1        9
siesta:     -3.88935   0.00000   1.35143  1       10
siesta:     -3.88935   0.00000   4.01540  1       11
siesta:     -3.14565   2.28802   5.37540  1       12
siesta:     -3.14565  -2.28802  -0.00857  1       13
siesta:     -1.20355  -3.70229   1.35116  1       14
siesta:     -1.20355  -3.70229   4.01567  1       15
siesta:     -3.14565  -2.28802   5.37540  1       16
siesta:      1.20355  -3.70229  -0.00945  1       17
siesta:      3.14565  -2.28802   1.35028  1       18
siesta:      3.14565  -2.28802   4.01654  1       19
siesta:      1.20355  -3.70229   5.37628  1       20

siesta: System type = chain     

initatomlists: Number of atoms, orbitals, and projectors:     20   260   320

siesta: ******************** Simulation parameters ****************************
siesta:
siesta: The following are some of the parameters of the simulation.
siesta: A complete list of the parameters used, including default values,
siesta: can be found in file out.fdf
siesta:
redata: Spin configuration                          = none
redata: Number of spin components                   = 1
redata: Time-Reversal Symmetry                      = T
redata: Spin spiral                                 = F
redata: Long output                                 =   T
redata: Number of Atomic Species                    =        1
redata: Charge density info will appear in .RHO file
redata: Write Mulliken Pop.                         = Atomic and Orbital charges
redata: Matel table size (NRTAB)                    =     1024
redata: Mesh Cutoff                                 =   300.0000 Ry
redata: Net charge of the system                    =     0.0000 |e|
redata: Min. number of SCF Iter                     =        0
redata: Max. number of SCF Iter                     =     1000
redata: SCF convergence failure will abort job
redata: SCF mix quantity                            = Hamiltonian
redata: Mix DM or H after convergence               =   F
redata: Recompute H after scf cycle                 =   F
redata: Mix DM in first SCF step                    =   T
redata: Write Pulay info on disk                    =   F
redata: New DM Occupancy tolerance                  = 0.000000000001
redata: No kicks to SCF
redata: DM Mixing Weight for Kicks                  =     0.5000
redata: Require Harris convergence for SCF          =   F
redata: Harris energy tolerance for SCF             =     0.000100 eV
redata: Require DM convergence for SCF              =   T
redata: DM tolerance for SCF                        =     0.000500
redata: Require EDM convergence for SCF             =   F
redata: EDM tolerance for SCF                       =     0.001000 eV
redata: Require H convergence for SCF               =   T
redata: Hamiltonian tolerance for SCF               =     0.001000 eV
redata: Require (free) Energy convergence for SCF   =   F
redata: (free) Energy tolerance for SCF             =     0.000100 eV
redata: Using Saved Data (generic)                  =   F
redata: Use continuation files for DM               =   T
redata: Neglect nonoverlap interactions             =   F
redata: Method of Calculation                       = Diagonalization
redata: Electronic Temperature                      =   290.1109 K
redata: Fix the spin of the system                  =   F
redata: Dynamics option                             = Single-point calculation
mix.SCF: Pulay mixing                            = Pulay
mix.SCF:    Variant                              = stable
mix.SCF:    History steps                        = 3
mix.SCF:    Linear mixing weight                 =     0.150000
mix.SCF:    Mixing weight                        =     0.150000
mix.SCF:    SVD condition                        = 0.1000E-07
redata: Save all siesta data in one NC              =   F
redata: ***********************************************************************

%block SCF.Mixers
  Pulay
%endblock SCF.Mixers

%block SCF.Mixer.Pulay
  # Mixing method
  method pulay
  variant stable

  # Mixing options
  weight 0.1500
  weight.linear 0.1500
  history 3
%endblock SCF.Mixer.Pulay

DM_history_depth set to one: no extrapolation allowed by default for geometry relaxation
Size of DM history Fstack: 1
Total number of electrons:    80.000000
Total ionic charge:    80.000000

* ProcessorY, Blocksize:    2  24


* Orbital distribution balance (max,min):    48    24

 Kpoints in:           25 . Kpoints trimmed:           25

siesta: k-point coordinates (Bohr**-1) and weights:
siesta:    1    0.000000    0.000000    0.007805       0.040000
siesta:    2    0.000000    0.000000    0.023415       0.040000
siesta:    3    0.000000    0.000000    0.039025       0.040000
siesta:    4    0.000000    0.000000    0.054635       0.040000
siesta:    5    0.000000    0.000000    0.070245       0.040000
siesta:    6    0.000000    0.000000    0.085855       0.040000
siesta:    7    0.000000    0.000000    0.101465       0.040000
siesta:    8    0.000000    0.000000    0.117075       0.040000
siesta:    9    0.000000    0.000000    0.132684       0.040000
siesta:   10    0.000000    0.000000    0.148294       0.040000
siesta:   11    0.000000    0.000000    0.163904       0.040000
siesta:   12    0.000000    0.000000    0.179514       0.040000
siesta:   13    0.000000    0.000000    0.195124       0.040000
siesta:   14    0.000000    0.000000    0.210734       0.040000
siesta:   15    0.000000    0.000000    0.226344       0.040000
siesta:   16    0.000000    0.000000    0.241954       0.040000
siesta:   17    0.000000    0.000000    0.257564       0.040000
siesta:   18    0.000000    0.000000    0.273174       0.040000
siesta:   19    0.000000    0.000000    0.288784       0.040000
siesta:   20    0.000000    0.000000    0.304394       0.040000
siesta:   21    0.000000    0.000000    0.320004       0.040000
siesta:   22    0.000000    0.000000    0.335614       0.040000
siesta:   23    0.000000    0.000000    0.351224       0.040000
siesta:   24    0.000000    0.000000    0.366834       0.040000
siesta:   25    0.000000    0.000000    0.382444       0.040000

siesta: k-grid: Number of k-points =    25
siesta: k-grid: Cutoff (effective) =    12.500 Ang
siesta: k-grid: Supercell and displacements
siesta: k-grid:    1   0   0      0.000
siesta: k-grid:    0   1   0      0.000
siesta: k-grid:    0   0  50      0.500

diag: Algorithm                                     = D&C
diag: Parallel over k                               =   F
diag: Use parallel 2D distribution                  =   T
diag: Parallel block-size                           = 24
diag: Parallel distribution                         =     2 x     4
diag: Used triangular part                          = Lower
diag: Absolute tolerance                            =  0.100E-15
diag: Orthogonalization factor                      =  0.100E-05
diag: Memory factor                                 =  1.0000

superc: Internal auxiliary supercell:     1 x     1 x     5  =       5
superc: Number of atoms, orbitals, and projectors:    100   1300   1600


ts: **************************************************************
ts: Save H and S matrices                           =    F
ts: Save DM and EDM matrices                        =    F
ts: Only save the overlap matrix S                  =    F
ts: **************************************************************

************************ Begin: TS CHECKS AND WARNINGS ************************
************************ End: TS CHECKS AND WARNINGS **************************


                     ====================================
                        Single-point calculation
                     ====================================

outcoor: Atomic coordinates (Ang):                          
    2.05815253    0.00000005   -0.00514455   1       1  C_2
    1.66460705    1.21076605    0.71453767   1       2  C_2
    1.66460711    1.21076647    2.12546263   1       3  C_2
    2.05815296    0.00000047    2.84514465   1       4  C_2
    0.63688939    1.95916716   -0.00500262   1       5  C_2
   -0.63688894    1.95916590    0.71500218   1       6  C_2
   -0.63688917    1.95916561    2.12499787   1       7  C_2
    0.63688896    1.95916634    2.84500249   1       8  C_2
   -1.66460648    1.21076599   -0.00453819   1       9  C_2
   -2.05815276    0.00000073    0.71514444   1      10  C_2
   -2.05815258    0.00000022    2.12485528   1      11  C_2
   -1.66460743    1.21076602    2.84453725   1      12  C_2
   -1.66460700   -1.21076524   -0.00453762   1      13  C_2
   -0.63688959   -1.95916680    0.71500261   1      14  C_2
   -0.63688943   -1.95916713    2.12499762   1      15  C_2
   -1.66460732   -1.21076587    2.84453747   1      16  C_2
    0.63688916   -1.95916651   -0.00500246   1      17  C_2
    1.66460721   -1.21076640    0.71453747   1      18  C_2
    1.66460716   -1.21076570    2.12546235   1      19  C_2
    0.63688907   -1.95916543    2.84500187   1      20  C_2

superc: Internal auxiliary supercell:     1 x     1 x     5  =       5
superc: Number of atoms, orbitals, and projectors:    100   1300   1600

outcell: Unit cell vectors (Ang):
       25.000000    0.000000    0.000000
      -12.500000   21.650635    0.000000
        0.000000    0.000000    4.260000

outcell: Cell vector modules (Ang)   :   25.000000   25.000000    4.260000
outcell: Cell angles (23,13,12) (deg):     90.0000     90.0000    120.0000
outcell: Cell volume (Ang**3)        :   2305.7926
<dSpData1D:S at geom step 0
  <sparsity:sparsity for geom step 0
    nrows_g=260 nrows=48 sparsity=.3846 nnzs=25996, refcount: 7>
  <dData1D:(new from dSpData1D) n=25996, refcount: 1>
refcount: 1>
new_DM -- step:     1
Initializing Density Matrix...

Attempting to read DM from file... Failed...
DM filled with atomic data:
<dSpData2D:DM initialized from atoms
  <sparsity:sparsity for geom step 0
    nrows_g=260 nrows=48 sparsity=.3846 nnzs=25996, refcount: 8>
  <dData2D:DM n=25996 m=1, refcount: 1>
refcount: 1>
No. of atoms with KB's overlaping orbs in proc 0. Max # of overlaps:      48     183
New grid distribution:   1
           1       1:  120    1:   60    1:    6
           2       1:  120    1:   60    7:   12
           3       1:  120    1:   60   13:   18
           4       1:  120    1:   60   19:   24
           5       1:  120   61:  120    1:    6
           6       1:  120   61:  120    7:   12
           7       1:  120   61:  120   13:   18
           8       1:  120   61:  120   19:   24

InitMesh: MESH =   240 x   240 x    48 =     2764800
InitMesh: (bp) =   120 x   120 x    24 =      345600
InitMesh: Mesh cutoff (required, used) =   300.000   339.612 Ry
ExtMesh (bp) on 0 =   192 x   132 x    82 =     2078208
New grid distribution:   2
           1      13:  120    7:   19    1:   24
           2       1:  108  115:  120    1:   24
           3      13:  120    1:    6    1:   24
           4       1:   12    1:    7    1:   24
           5       1:  108   20:  114    1:   24
           6     109:  120   20:  113    1:   24
           7       1:   12    8:   19    1:   24
           8     109:  120  114:  120    1:   24
New grid distribution:   3
           1      22:  120   11:   29    1:   24
           2       1:   99  111:  120    1:   24
           3      22:  120    1:   10    1:   24
           4       1:   21    1:   14    1:   24
           5       1:   99   30:  110    1:   24
           6     100:  120   30:  106    1:   24
           7       1:   21   15:   29    1:   24
           8     100:  120  107:  120    1:   24
Setting up quadratic distribution...
ExtMesh (bp) on 0 =   180 x    85 x   100 =     1530000
PhiOnMesh: Number of (b)points on node 0 =                33696
PhiOnMesh: nlist on node 0 =               350800

stepf: Fermi-Dirac step function

siesta: Program's energy decomposition (eV):
siesta: Ebs     =      -943.441596
siesta: Eions   =      6322.689628
siesta: Ena     =      2076.476941
siesta: Ekin    =      2335.780881
siesta: Enl     =      -103.016727
siesta: Eso     =         0.000000
siesta: Edftu   =         0.000000
siesta: DEna    =      -141.734120
siesta: DUscf   =         9.966323
siesta: DUext   =         0.000000
siesta: Exc     =      -947.337467
siesta: eta*DQ  =         0.000000
siesta: Emadel  =         0.000000
siesta: Emeta   =         0.000000
siesta: Emolmec =         0.000000
siesta: Ekinion =         0.000000
siesta: Eharris =     -3060.977000
siesta: Etot    =     -3092.553795
siesta: FreeEng =     -3092.567251

        iscf     Eharris(eV)        E_KS(eV)     FreeEng(eV)     dDmax    Ef(eV) dHmax(eV)
   scf:    1    -3060.977000    -3092.553795    -3092.567251  0.741926 -6.557099  4.242417
timer: Routine,Calls,Time,% = IterSCF        1       2.879  57.76
   scf:    2    -3094.135168    -3093.373091    -3093.386160  0.053404 -6.110614  3.059033
   scf:    3    -3095.080501    -3094.386087    -3094.399470  0.158084 -5.066566  0.252989
   scf:    4    -3094.532345    -3094.480456    -3094.493717  0.013080 -5.063243  0.223583
   scf:    5    -3094.495493    -3094.489483    -3094.502739  0.014111 -4.994727  0.048173
   scf:    6    -3094.490117    -3094.489803    -3094.503048  0.001291 -5.002915  0.038241
   scf:    7    -3094.491507    -3094.490781    -3094.503935  0.004990 -5.038348  0.006822
   scf:    8    -3094.490815    -3094.490803    -3094.503950  0.000362 -5.041067  0.004426
   scf:    9    -3094.490818    -3094.490812    -3094.503956  0.000232 -5.043190  0.002179
   scf:   10    -3094.490808    -3094.490810    -3094.503958  0.000073 -5.043180  0.001001
   scf:   11    -3094.490807    -3094.490809    -3094.503958  0.000031 -5.043220  0.000431

SCF Convergence by DM+H criterion
max |DM_out - DM_in|         :     0.0000305276
max |H_out - H_in|      (eV) :     0.0004314502
SCF cycle converged after 11 iterations

Using DM_out to compute the final energy and forces
No. of atoms with KB's overlaping orbs in proc 0. Max # of overlaps:      48     183

siesta: E_KS(eV) =            -3094.4908

siesta: E_KS - E_eggbox =     -3094.4908

siesta: Atomic forces (eV/Ang):
     1   -0.377673    0.000004    0.034049
     2   -0.299458   -0.251405    0.000815
     3   -0.299454   -0.251419   -0.000828
     4   -0.377680   -0.000003   -0.034050
     5   -0.150665   -0.341945    0.022145
     6    0.150668   -0.341931   -0.022129
     7    0.150665   -0.341929    0.022110
     8   -0.150660   -0.341922   -0.022131
     9    0.299436   -0.251400   -0.000797
    10    0.377679   -0.000024   -0.034049
    11    0.377669   -0.000012    0.034043
    12    0.299468   -0.251396    0.000826
    13    0.299458    0.251396   -0.000815
    14    0.150673    0.341936   -0.022144
    15    0.150660    0.341946    0.022123
    16    0.299463    0.251408    0.000819
    17   -0.150673    0.341947    0.022135
    18   -0.299461    0.251414    0.000821
    19   -0.299459    0.251403   -0.000825
    20   -0.150667    0.341922   -0.022109
----------------------------------------
   Tot   -0.000008   -0.000010    0.000009
----------------------------------------
   Max    0.377680
   Res    0.220571    sqrt( Sum f_i^2 / 3N )
----------------------------------------
   Max    0.377680    constrained

Stress tensor Voigt[x,y,z,yz,xz,xy] (kbar):        5.47        5.56        5.75        0.00        0.00       -0.00
(Free)E + p*V (eV/cell)    -3102.5508
Target enthalpy (eV/cell)    -3094.5040

mulliken: Atomic and Orbital Populations:

Species: C_2                 
Atom  Qatom  Qorb
               2s      2s      2py     2pz     2px     2py     2pz     2px     
               3dxy    3dyz    3dz2    3dxz    3dx2-y2 
   1  4.002   1.031   0.258   0.422   0.393   0.732   0.396   0.442   0.168
              0.031   0.043   0.029   0.034   0.022
   2  3.999   1.032   0.258   0.528   0.392   0.624   0.317   0.443   0.247
              0.022   0.040   0.029   0.037   0.030
   3  3.999   1.032   0.258   0.528   0.392   0.624   0.317   0.443   0.247
              0.022   0.040   0.029   0.037   0.030
   4  4.002   1.031   0.258   0.422   0.393   0.732   0.396   0.442   0.168
              0.031   0.043   0.029   0.034   0.022
   5  4.000   1.032   0.258   0.702   0.392   0.451   0.190   0.443   0.374
              0.028   0.035   0.030   0.042   0.025
   6  4.000   1.032   0.258   0.702   0.392   0.451   0.190   0.443   0.374
              0.028   0.035   0.030   0.042   0.025
   7  4.000   1.032   0.258   0.702   0.392   0.451   0.190   0.443   0.374
              0.028   0.035   0.030   0.042   0.025
   8  4.000   1.032   0.258   0.702   0.392   0.451   0.190   0.443   0.374
              0.028   0.035   0.030   0.042   0.025
   9  3.999   1.032   0.258   0.528   0.392   0.624   0.317   0.443   0.247
              0.022   0.040   0.029   0.037   0.030
  10  4.002   1.031   0.258   0.422   0.393   0.732   0.396   0.442   0.168
              0.031   0.043   0.029   0.034   0.022
  11  4.002   1.031   0.258   0.422   0.393   0.732   0.396   0.442   0.168
              0.031   0.043   0.029   0.034   0.022
  12  3.999   1.032   0.258   0.528   0.392   0.624   0.317   0.443   0.247
              0.022   0.040   0.029   0.037   0.030
  13  3.999   1.032   0.258   0.528   0.392   0.624   0.317   0.443   0.247
              0.022   0.040   0.029   0.037   0.030
  14  4.000   1.032   0.258   0.702   0.392   0.451   0.190   0.443   0.374
              0.028   0.035   0.030   0.042   0.025
  15  4.000   1.032   0.258   0.702   0.392   0.451   0.190   0.443   0.374
              0.028   0.035   0.030   0.042   0.025
  16  3.999   1.032   0.258   0.528   0.392   0.624   0.317   0.443   0.247
              0.022   0.040   0.029   0.037   0.030
  17  4.000   1.032   0.258   0.702   0.392   0.451   0.190   0.443   0.374
              0.028   0.035   0.030   0.042   0.025
  18  3.999   1.032   0.258   0.528   0.392   0.624   0.317   0.443   0.247
              0.022   0.040   0.029   0.037   0.030
  19  3.999   1.032   0.258   0.528   0.392   0.624   0.317   0.443   0.247
              0.022   0.040   0.029   0.037   0.030
  20  4.000   1.032   0.258   0.702   0.392   0.451   0.190   0.443   0.374
              0.028   0.035   0.030   0.042   0.025

mulliken: Qtot =       80.000

siesta: Eigenvalues (eV):
  ik is       eps
   1  1  -24.1899  -23.1919  -23.1881  -20.8000  -20.7890  -18.9153  -17.9974  -17.9956  -17.9927  -17.8021
         -17.7928  -17.3350  -17.3325  -15.7545  -15.7387  -14.4863  -14.4819  -13.3967  -13.3956  -12.7781
  -12.7627  -12.6723  -12.1452  -12.1410  -11.5332  -11.5285  -11.3241   -9.4667   -9.4651   -8.6843
   -8.6840   -7.9021   -7.8922   -7.7136   -7.4187   -6.7265   -5.8368   -5.4738   -5.4718   -4.9991
   -4.9878   -4.4823   -4.4766   -2.7176   -2.6992    0.0867    0.7037    0.7140    1.7240    1.7290
    2.2122    2.3864    2.5964    3.1146    3.1147    4.8200    4.8224    5.5363    5.5586    5.7003
    6.3149    6.3150    6.4322    6.4369    6.8976    6.8997    7.0684    7.0694    7.7598    7.7838
    8.3946    8.3948    8.4996    8.5467    8.5724    9.3227    9.7604    9.7809   10.7174   10.7197
   11.3947   11.4075   11.5501   11.6204   11.6236   12.1061   12.1324   12.3648   12.3661   12.4343
   13.1644   13.4435   13.4612   13.8424   13.8440   13.8514   13.8667   13.9339   14.4103   14.4164
   14.6737   14.6815   15.2156   15.2170   15.3119   15.5923   16.3226   16.3268   16.3459   16.4953
   16.4961   16.6752   16.6819   17.3179   17.5251   17.5262   17.7276   17.7379   17.7823   18.0683
   18.0725   19.5915   20.7208   20.7264   22.7761   22.7805   23.2346   23.5237   23.5485   23.5831
   23.8789   25.2162   25.2169   26.2706   26.2760   26.5506   26.5529   28.1790   28.1998   28.2088
   28.2121   29.1506   29.1580   29.9105   29.9129   30.8666   30.8703   30.8749   30.8909   31.0542
   31.8502   32.0132   32.0340   33.9332   33.9400   34.5155   34.5161   34.9286   34.9431   35.2736
   36.2600   36.2612   36.3695   36.3808   36.5746   36.5809   36.9986   37.9264   38.5910   38.6153
   39.3466   40.6509   40.9581   40.9633   41.0417   41.0429   41.0881   41.1115   41.2854   42.3069
   42.3362   43.2712   43.2816   44.8881   44.8989   45.3152   45.3565   46.0489   46.0585   46.3721
   48.3445   48.3785   50.4613   50.4953   51.9107   51.9153   52.4740   52.4891   52.5429   52.5447
   54.1561   54.2000   56.6842   56.6846   57.9577   57.9695   59.4453   60.3276   60.6005   61.1213
   65.0075   65.0357   69.9935   70.0003   71.6785   73.5565   74.0986   76.2355   76.2729   81.2030
   81.2953   82.1823   85.3795   85.4868   87.7185   87.7582   92.1090   96.0887   96.1197  103.3845
  107.4952  115.8008  115.8248  117.0690  117.0827  120.4561  120.5493  120.8349  120.8357  123.5507
  123.5661  125.3552  125.3811  126.4950  128.4271  128.4823  138.3657  138.5859  149.4608  150.4028
  150.4333  154.9869  159.9871  160.1293  164.5201  164.8034  167.9008  167.9035  183.8521  183.8532
   2  1  -24.1854  -23.1874  -23.1835  -20.7955  -20.7845  -19.0065  -18.1032  -18.0988  -17.8981  -17.8017
         -17.7925  -17.2253  -17.2225  -15.8009  -15.7856  -14.4324  -14.4276  -13.3899  -13.3888  -12.8480
  -12.8336  -12.6680  -12.0789  -12.0738  -11.5328  -11.5281  -11.3190   -9.4888   -9.4873   -8.6754
   -8.6751   -7.8974   -7.8876   -7.7301   -7.4323   -6.7976   -5.7683   -5.5373   -5.5350   -5.0069
   -4.9958   -4.4202   -4.4146   -2.7133   -2.6952    0.0744    0.6925    0.7028    1.7113    1.7162
    2.2358    2.4025    2.5942    3.1107    3.1108    4.8323    4.8347    5.4948    5.5170    5.7133
    6.3124    6.3132    6.4603    6.4640    6.8957    6.8979    7.0751    7.0762    7.7374    7.7609
    8.3921    8.3983    8.3985    8.5952    8.6209    9.4220    9.7374    9.7569   10.6881   10.6904
   11.3863   11.3991   11.5580   11.5862   11.5890   12.0980   12.1245   12.2667   12.2681   12.4088
   13.1548   13.4782   13.4953   13.8587   13.8740   13.9105   13.9121   13.9178   14.3778   14.3834
   14.7109   14.7185   15.2440   15.2454   15.2949   15.6076   16.2848   16.3255   16.3444   16.4643
   16.4647   16.7478   16.7546   17.3634   17.5228   17.5239   17.6546   17.6624   17.7943   18.1073
   18.1089   19.5313   20.7147   20.7202   22.8061   22.8105   23.3120   23.5199   23.5444   23.6113
   23.8518   25.2164   25.2169   26.2647   26.2699   26.5318   26.5340   28.2071   28.2089   28.2104
   28.2297   29.0771   29.0838   29.8672   29.8704   30.8661   30.8740   30.8791   30.8987   30.9949
   31.6679   32.0316   32.0532   33.9271   33.9339   34.3257   34.3280   34.9547   34.9692   35.2637
   35.9523   35.9550   36.5252   36.5350   36.8642   36.8689   37.2383   37.8439   38.4704   38.4932
   39.3943   40.6575   40.9059   40.9111   41.0146   41.0375   41.1991   41.1995   41.3227   42.2477
   42.2769   43.2706   43.2811   44.7496   44.7594   45.3847   45.4253   46.1520   46.1636   46.3469
   48.2236   48.2557   50.4008   50.4344   52.0484   52.0589   52.0810   52.0839   52.5242   52.5391
   54.6869   54.7263   56.4225   56.4230   58.0583   58.0708   58.8335   60.4558   61.1207   61.1312
   65.1769   65.2043   69.9822   69.9895   71.4534   73.4955   74.1500   76.4104   76.4478   81.1527
   81.2453   82.0112   85.2222   85.3297   87.7425   87.7814   91.9701   96.1908   96.2219  103.3691
  107.3441  114.3264  114.3331  115.5273  115.5507  120.1431  120.2351  123.2104  123.2323  123.2388
  123.2474  125.2747  125.2945  126.2316  128.4860  128.5252  138.1465  138.3665  148.8826  150.3831
  150.4123  152.2810  159.6118  159.7568  164.2824  164.5636  167.3004  167.3054  183.2126  183.2144
   3  1  -24.1763  -23.1782  -23.1744  -20.7865  -20.7756  -19.1518  -18.2590  -18.2548  -17.8012  -17.7921
         -17.7401  -17.0618  -17.0589  -15.8831  -15.8685  -14.3347  -14.3294  -13.3763  -13.3752  -12.9598
  -12.9464  -12.6594  -11.9745  -11.9684  -11.5323  -11.5276  -11.3090   -9.5304   -9.5289   -8.6601
   -8.6597   -7.8881   -7.8783   -7.7630   -7.4592   -6.9167   -5.6546   -5.6464   -5.6439   -5.0224
   -5.0116   -4.3137   -4.3084   -2.7049   -2.6872    0.0499    0.6701    0.6804    1.6860    1.6909
    2.2829    2.4348    2.5901    3.1035    3.1037    4.8567    4.8592    5.4151    5.4372    5.7393
    6.3112    6.3129    6.5117    6.5144    6.8939    6.8962    7.0882    7.0894    7.6924    7.7151
    8.2250    8.4057    8.4060    8.6867    8.7125    9.5722    9.6955    9.7129   10.6306   10.6328
   11.3699   11.3827   11.5196   11.5216   11.5737   12.0812   12.0947   12.0955   12.1100   12.3584
   13.1334   13.5444   13.5605   13.8724   13.8876   13.8881   14.0242   14.0256   14.3137   14.3186
   14.7828   14.7901   15.2611   15.2975   15.2988   15.6373   16.2179   16.3237   16.3421   16.4427
   16.4434   16.8516   16.8588   17.4455   17.5195   17.5205   17.5370   17.5428   17.8188   18.1561
   18.1569   19.4179   20.7027   20.7079   22.8636   22.8680   23.4600   23.5127   23.5366   23.6673
   23.7985   25.2164   25.2168   26.2527   26.2575   26.4953   26.4972   28.2022   28.2055   28.2677
   28.2883   28.9376   28.9430   29.7839   29.7883   30.8573   30.8645   30.8780   30.8936   30.9115
   31.3481   32.0726   32.0945   33.9151   33.9221   34.0281   34.0324   35.0040   35.0184   35.2440
   35.6381   35.6407   36.7333   36.7416   37.1452   37.1494   37.6707   37.6932   38.2962   38.3169
   39.4761   40.6709   40.8055   40.8105   40.8750   40.8968   41.3951   41.4651   41.4676   42.1315
   42.1604   43.2639   43.2744   44.5385   44.5472   45.5088   45.5479   46.2770   46.2914   46.2972
   48.0092   48.0384   50.3013   50.3339   51.4803   51.4858   52.3569   52.3588   52.6163   52.6306
   55.3853   55.4237   55.9899   55.9902   58.1814   58.2113   58.2761   60.1730   61.1505   62.0528
   65.4751   65.5011   69.9783   69.9866   71.0087   73.3933   74.2332   76.7622   76.7996   81.0582
   81.1512   81.6736   84.9170   85.0248   87.7844   87.8217   91.6985   96.3994   96.4306  103.3397
  107.0389  111.4338  111.4359  115.0113  115.0337  119.5347  119.6244  122.3838  122.4137  124.6291
  124.6749  125.2462  125.2585  125.7095  129.4314  129.4361  137.7123  137.9321  147.2881  147.7562
  150.3463  150.3699  158.8892  159.0404  163.8215  164.0986  166.1203  166.1294  181.9640  181.9672
   4  1  -24.1626  -23.1645  -23.1607  -20.7731  -20.7621  -19.3222  -18.4329  -18.4288  -17.8012  -17.7923
         -17.5509  -16.8765  -16.8734  -15.9877  -15.9740  -14.2063  -14.2005  -13.3559  -13.3548  -13.0920
  -13.0793  -12.6465  -11.8536  -11.8469  -11.5318  -11.5271  -11.2938   -9.5874   -9.5859   -8.6422
   -8.6417   -7.8742   -7.8644   -7.8119   -7.4990   -7.0623   -5.7827   -5.7801   -5.5169   -5.0454
   -5.0353   -4.1814   -4.1762   -2.6922   -2.6751    0.0136    0.6370    0.6472    1.6487    1.6536
    2.3529    2.4828    2.5847    3.0944    3.0946    4.8931    4.8957    5.3034    5.3254    5.7781
    6.3135    6.3160    6.5829    6.5846    6.8949    6.8973    7.1061    7.1076    7.6250    7.6464
    8.0314    8.4170    8.4173    8.8122    8.8381    9.6411    9.6557    9.7399   10.5467   10.5489
   11.3461   11.3587   11.4240   11.4251   11.5971   11.8741   11.8754   12.0597   12.0867   12.2842
   13.0960   13.6373   13.6520   13.8499   13.8911   13.9060   14.1594   14.1606   14.2199   14.2239
   14.8848   14.8918   15.2113   15.3698   15.3711   15.6796   16.1331   16.3234   16.3412   16.4447
   16.4466   16.9712   16.9790   17.3929   17.3969   17.5181   17.5190   17.5542   17.8569   18.2007
   18.2032   19.2623   20.6848   20.6896   22.9442   22.9486   23.5028   23.5260   23.6674   23.7210
   23.7504   25.2157   25.2159   26.2339   26.2380   26.4434   26.4449   28.1913   28.1948   28.3532
   28.3738   28.7429   28.7467   29.6649   29.6708   30.6977   30.8317   30.8381   30.9095   30.9254
   30.9574   32.1389   32.1608   33.6917   33.6979   33.8981   33.9052   35.0712   35.0853   35.2148
   35.3247   35.3270   36.8688   36.8768   37.4146   37.4181   37.4915   38.1728   38.1909   38.2354
   39.5758   40.6634   40.6687   40.6816   40.6902   40.7028   41.4981   41.7917   41.7960   41.9624
   41.9910   43.2420   43.2525   44.3030   44.3110   45.6570   45.6933   46.2246   46.3471   46.3648
   47.7397   47.7661   50.2006   50.2315   50.9216   50.9244   52.7403   52.7414   52.7470   52.7535
   55.4588   55.4590   56.1464   56.1853   57.7347   58.3524   58.3611   59.7644   61.1779   63.1007
   65.8336   65.8578   70.0198   70.0296   70.3563   73.2649   74.3337   77.2935   77.3310   80.9303
   81.0241   81.1783   84.4801   84.5884   87.8328   87.8679   91.3054   96.7228   96.7543  103.2990
  106.5736  108.5906  108.5923  114.2987  114.3198  118.6647  118.7508  121.0348  121.0700  124.2933
  124.3606  124.9381  125.2932  125.3007  131.7894  131.8229  137.0715  137.2908  140.7118  146.1377
  150.2863  150.3025  157.8720  158.0339  163.1637  163.4348  164.4003  164.4153  180.1640  180.1691
   5  1  -24.1443  -23.1462  -23.1424  -20.7552  -20.7442  -19.5033  -18.6133  -18.6093  -17.8023  -17.7938
         -17.3448  -16.6810  -16.6779  -16.1037  -16.0909  -14.0576  -14.0514  -13.3284  -13.3273  -13.2341
  -13.2219  -12.6295  -11.7267  -11.7196  -11.5322  -11.5275  -11.2737   -9.6552   -9.6538   -8.6256
   -8.6250   -7.8766   -7.8557   -7.8458   -7.5510   -7.2219   -5.9344   -5.9317   -5.3676   -5.0759
   -5.0665   -4.0348   -4.0298   -2.6752   -2.6590   -0.0343    0.5935    0.6036    1.6001    1.6049
    2.4452    2.5464    2.5788    3.0849    3.0853    4.9413    4.9441    5.1671    5.1888    5.8296
    6.3198    6.3228    6.6712    6.6722    6.9005    6.9032    7.1251    7.1268    7.5381    7.5579
    7.8263    8.4321    8.4325    8.9622    8.9881    9.5822    9.5937    9.9087   10.4388   10.4408
   11.3031   11.3037   11.3164   11.3281   11.6242   11.6261   11.6284   12.0306   12.0582   12.1878
   13.0362   13.7505   13.7637   13.8105   13.9117   13.9264   14.0997   14.1026   14.3013   14.3023
   15.0102   15.0170   15.1465   15.4517   15.4528   15.7321   16.0390   16.3283   16.3450   16.4741
   16.4773   17.1014   17.1096   17.2324   17.2357   17.5229   17.5236   17.6799   17.9099   18.2394
   18.2432   19.0758   20.6611   20.6653   23.0420   23.0463   23.4914   23.5137   23.6221   23.8600
   23.9228   25.2135   25.2136   26.2074   26.2107   26.3786   26.3798   28.1711   28.1747   28.4625
   28.4828   28.5036   28.5058   29.5147   29.5219   30.3866   30.6136   30.7857   30.7913   30.9228
   30.9365   32.2293   32.2508   33.3552   33.3631   33.8769   33.8842   35.0179   35.0199   35.1498
   35.1635   35.1771   36.8290   36.8380   37.2509   37.6721   37.6757   38.1964   38.2114   38.8817
   39.6816   40.4469   40.4661   40.4898   40.4943   40.7188   41.6256   41.7461   41.7741   42.1461
   42.1517   43.1945   43.2047   44.0648   44.0724   45.7822   45.8141   46.1314   46.3074   46.3283
   47.4523   47.4766   50.1490   50.1767   50.4331   50.4334   52.8904   52.9020   53.1965   53.2054
   54.8745   54.8756   56.9508   56.9909   57.2611   58.5078   58.5178   59.2458   61.2106   64.2631
   66.1728   66.1951   69.5161   70.1604   70.1718   73.1170   74.4454   78.0062   78.0439   80.5386
   80.7822   80.8765   83.9307   84.0397   87.8736   87.9061   90.8062   97.1714   97.2032  103.2508
  105.8474  105.8523  105.9414  113.4333  113.4532  117.5798  117.6611  119.2371  119.2759  123.0789
  123.1500  123.9305  125.3441  125.3488  133.3245  134.7460  134.7930  136.2370  136.4541  144.1038
  150.1952  150.1983  156.6338  156.8127  162.1666  162.2053  162.3743  162.6217  177.8921  177.8995
   6  1  -24.1214  -23.1233  -23.1195  -20.7328  -20.7219  -19.6885  -18.7955  -18.7915  -17.8060  -17.7980
         -17.1284  -16.4805  -16.4773  -16.2229  -16.2110  -13.8955  -13.8890  -13.3814  -13.3696  -13.2939
  -13.2928  -12.6085  -11.5990  -11.5917  -11.5340  -11.5294  -11.2485   -9.7298   -9.7285   -8.6136
   -8.6129   -7.9559   -7.8327   -7.8229   -7.6145   -7.3892   -6.0948   -6.0920   -5.2129   -5.1135
   -5.1050   -3.8805   -3.8755   -2.6540   -2.6387   -0.0931    0.5402    0.5502    1.5407    1.5456
    2.5589    2.5735    2.6249    3.0773    3.0777    4.9993    4.9997    5.0176    5.0366    5.8934
    6.3299    6.3333    6.7743    6.7746    6.9118    6.9147    7.1332    7.1347    7.4439    7.4613
    7.6165    8.4512    8.4517    9.1277    9.1538    9.5256    9.5337   10.0709   10.3092   10.3112
   11.1624   11.1631   11.2802   11.2921   11.3582   11.3595   11.6655   11.9961   12.0246   12.0711
   12.9479   13.7777   13.8779   13.8898   13.9308   13.9455   13.9572   13.9591   14.4427   14.4433
   15.0682   15.1497   15.1570   15.5319   15.5328   15.7921   15.9418   16.3443   16.3593   16.5310
   16.5353   17.0628   17.0658   17.2394   17.2480   17.5396   17.5401   17.8178   17.9791   18.2727
   18.2774   18.8684   20.6318   20.6355   23.1499   23.1540   23.4798   23.4998   23.5067   23.9949
   24.2163   25.2085   25.2090   26.1720   26.1743   26.3039   26.3044   28.1384   28.1422   28.2288
   28.2292   28.5920   28.6120   29.3367   29.3451   29.9354   30.3618   30.7216   30.7263   30.9304
   30.9420   32.3387   32.3596   33.0411   33.0505   33.8531   33.8607   34.7240   34.7253   35.1306
   35.2333   35.2465   36.6304   36.6402   36.9812   37.9168   37.9201   38.3468   38.3593   39.5706
   39.7869   40.1859   40.2034   40.2917   40.2960   40.7537   41.4908   41.5180   41.7706   42.5078
   42.5146   43.1111   43.1209   43.8317   43.8394   45.8280   45.8537   46.0205   46.1282   46.1511
   47.1807   47.2035   50.0321   50.0349   50.2002   50.2231   53.0676   53.0770   53.7005   53.7122
   54.2689   54.2708   56.8198   57.7983   57.8399   58.6348   58.6758   58.6862   61.2421   65.5369
   66.4269   66.4473   68.5204   70.4501   70.4630   72.9520   74.5666   78.8986   78.9369   79.7722
   80.6262   80.7209   83.2858   83.3958   87.8913   87.9210   90.2190   97.7557   97.7879  103.1999
  103.2371  103.2445  105.1351  112.4464  112.4649  116.3350  116.4094  117.0816  117.1242  121.4419
  121.5122  122.7039  125.3332  125.3342  125.8098  135.2151  135.4357  137.8595  137.9106  141.7435
  150.0247  150.0425  155.2726  155.4769  159.5566  159.5894  161.4263  161.6793  175.2425  175.2525
   7  1  -24.0939  -23.0959  -23.0921  -20.7060  -20.6950  -19.8747  -18.9774  -18.9734  -17.8138  -17.8066
         -16.9050  -16.3393  -16.3284  -16.2772  -16.2740  -13.7246  -13.7179  -13.5312  -13.5197  -13.2521
  -13.2510  -12.5836  -11.5385  -11.5339  -11.4734  -11.4660  -11.2183   -9.8077   -9.8064   -8.6086
   -8.6078   -8.0494   -7.8053   -7.7955   -7.6886   -7.5605   -6.2601   -6.2572   -5.1581   -5.1504
   -5.0560   -3.7221   -3.7172   -2.6284   -2.6143   -0.1623    0.4777    0.4877    1.4714    1.4763
    2.5698    2.6931    2.7178    3.0737    3.0744    4.8476    4.8685    5.0734    5.0763    5.9692
    6.3436    6.3472    6.8894    6.8897    6.9289    6.9319    7.0937    7.0953    7.3809    7.3930
    7.4059    8.4745    8.4751    9.3012    9.3274    9.4763    9.4811   10.1602   10.1620   10.2211
   11.0057   11.0072   11.0825   11.0837   11.2403   11.2519   11.7096   11.9320   11.9614   11.9876
   12.8269   13.7571   13.7973   13.7982   13.9437   13.9559   14.0170   14.0253   14.5807   14.5809
   14.9780   15.2914   15.2998   15.5985   15.5991   15.8455   15.8568   16.3805   16.3932   16.6140
   16.6190   16.8916   16.8946   17.3841   17.3930   17.5745   17.5746   17.9646   18.0659   18.3021
   18.3074   18.6474   20.5974   20.6003   23.2603   23.2640   23.3760   23.4690   23.4889   24.1543
   24.5403   25.1998   25.2008   26.1260   26.1270   26.2211   26.2212   27.9249   27.9263   28.0917
   28.0957   28.7370   28.7565   29.1337   29.1431   29.4500   30.1207   30.6448   30.6489   30.9302
   30.9398   32.4599   32.4801   32.7643   32.7752   33.8285   33.8364   34.4481   34.4488   35.0763
   35.3157   35.3284   36.3567   36.3667   36.6876   38.1458   38.1490   38.5371   38.5483   39.8882
   39.9094   39.9252   40.0775   40.0818   40.2705   40.7968   41.2056   41.2320   41.9258   42.8645
   42.8721   42.9839   42.9932   43.6039   43.6120   45.7496   45.7681   45.8153   45.8387   45.8950
   46.9537   46.9758   49.7117   49.7157   50.3904   50.4077   53.2804   53.2869   53.6642   53.6672
   54.2368   54.2507   56.3988   57.9476   58.6939   58.7371   58.8616   58.8720   61.2558   66.5730
   66.5923   66.9145   67.4224   70.9051   70.9189   72.7709   74.6980   78.9008   79.9632   80.0025
   80.4726   80.5671   82.5565   82.6674   87.8703   87.8974   89.5631   98.4840   98.5166  100.7851
  100.7946  103.1521  104.1504  111.3467  111.3641  114.6607  114.6947  114.9931  115.0715  118.6654
  119.5447  119.6121  121.2783  125.2166  125.2179  134.0317  134.2507  139.1507  140.9805  141.0397
  149.7041  149.7493  153.9324  154.1694  156.5799  156.6216  160.4329  160.6761  172.3171  172.3297
   8  1  -24.0617  -23.0639  -23.0601  -20.6747  -20.6638  -20.0600  -19.1577  -19.1538  -17.8279  -17.8217
         -16.6767  -16.4477  -16.4381  -16.0727  -16.0695  -13.6822  -13.6709  -13.5479  -13.5411  -13.2029
  -13.2017  -12.5551  -11.5468  -11.5423  -11.3516  -11.3442  -11.1832   -9.8858   -9.8845   -8.6125
   -8.6116   -8.1561   -7.7736   -7.7721   -7.7638   -7.7336   -6.4280   -6.4251   -5.2091   -5.2025
   -4.8990   -3.5618   -3.5569   -2.5985   -2.5856   -0.2412    0.4068    0.4166    1.3928    1.3977
    2.5689    2.8242    2.8466    3.0767    3.0775    4.6773    4.6979    5.1553    5.1586    6.0565
    6.3609    6.3647    6.9515    6.9548    6.9719    6.9766    7.0134    7.0146    7.1970    7.3834
    7.3900    8.5018    8.5026    9.4375    9.4392    9.4760    9.5024    9.9932    9.9949   10.3554
   10.8041   10.8053   10.8381   10.8402   11.1978   11.2090   11.7591   11.7809   11.9199   11.9485
   12.6731   13.6249   13.6250   13.7506   13.9449   13.9570   14.1584   14.1656   14.7138   14.7141
   14.8780   15.4205   15.4308   15.6413   15.6416   15.7533   15.9233   16.4495   16.4590   16.7206
   16.7263   16.7264   16.7299   17.5348   17.5438   17.6329   17.6332   18.1179   18.1716   18.3293
   18.3350   18.4186   20.5581   20.5604   23.2384   23.3654   23.3688   23.4602   23.4786   24.3372
   24.8889   25.1862   25.1876   26.0664   26.0670   26.1302   26.1310   27.6000   27.6031   28.0325
   28.0366   28.8926   28.9080   28.9111   28.9181   28.9585   29.8797   30.5611   30.5648   30.9212
   30.9288   32.5348   32.5469   32.5858   32.6052   33.8051   33.8135   34.1951   34.1952   35.0145
   35.3919   35.4039   36.0595   36.0693   36.3743   38.3526   38.3563   38.7137   38.7242   39.6277
   39.6416   39.8531   39.8573   39.9842   40.8484   40.9029   40.9281   40.9506   42.0847   42.8106
   42.8193   43.2064   43.2146   43.3745   43.3838   45.4104   45.4322   45.5360   45.5469   45.7573
   46.7936   46.8155   49.4377   49.4417   50.7155   50.7282   53.0770   53.0809   53.5460   53.5487
   54.7923   54.8078   55.9860   57.1995   59.0711   59.0816   59.6422   59.6869   61.2116   66.3131
   66.6377   66.6563   68.3816   71.4985   71.5122   72.5739   74.8406   77.9506   80.3231   80.4186
   81.1888   81.2278   81.7444   81.8562   87.7956   87.8202   88.8571   98.5144   98.5252   99.3614
   99.3941  102.9854  103.1136  110.0808  110.0992  112.1252  112.1417  112.2283  113.6051  113.6728
  117.4824  117.5453  119.6761  124.9668  124.9670  132.6970  132.9149  136.4170  144.0420  144.1086
  149.0922  149.1538  152.8347  153.0938  153.3327  153.3839  159.4302  159.6615  169.2188  169.2341
   9  1  -24.0249  -23.0273  -23.0235  -20.6390  -20.6281  -20.2434  -19.3358  -19.3319  -17.8509  -17.8460
         -16.5440  -16.5359  -16.4445  -15.8681  -15.8649  -13.8333  -13.8223  -13.3675  -13.3608  -13.1460
  -13.1448  -12.5233  -11.5606  -11.5561  -11.2351  -11.2277  -11.1431   -9.9611   -9.9597   -8.6264
   -8.6255   -8.2749   -7.9072   -7.8643   -7.7377   -7.7280   -6.5970   -6.5940   -5.2664   -5.2609
   -4.7428   -3.4008   -3.3959   -2.5643   -2.5527   -0.3289    0.3283    0.3380    1.3055    1.3104
    2.5716    2.9427    3.0183    3.0883    3.0897    4.5062    4.5264    5.2478    5.2514    6.1549
    6.3817    6.3856    6.7975    6.8031    6.9795    6.9830    6.9918    7.1437    7.1452    7.4267
    7.4305    8.5330    8.5340    9.4090    9.4099    9.6459    9.6725    9.8088    9.8101   10.4705
   10.5290   10.5301   10.6634   10.6660   11.1545   11.1652   11.6111   11.8150   11.8797   11.9091
   12.4888   13.4443   13.4454   13.7578   13.9286   13.9398   14.3008   14.3064   14.7702   14.8417
   14.8426   15.5245   15.5371   15.6535   15.6535   15.6677   15.9890   16.5628   16.5689   16.5749
   16.5793   16.8484   16.8544   17.6914   17.7001   17.7180   17.7190   18.1859   18.2751   18.2980
   18.3558   18.3620   20.5148   20.5164   23.0979   23.4543   23.4582   23.4611   23.4712   24.5428
   25.1662   25.1683   25.2579   25.9890   25.9913   26.0296   26.0313   27.2619   27.2668   27.9671
   27.9711   28.4672   28.6615   28.6722   29.0534   29.0718   29.6428   30.4757   30.4792   30.9028
   30.9086   32.3584   32.3716   32.7100   32.7284   33.7854   33.7943   33.9681   33.9688   34.9454
   35.4576   35.4688   35.7620   35.7716   36.0449   38.5242   38.5291   38.8530   38.8633   39.3489
   39.3609   39.6221   39.6263   40.0750   40.6003   40.6237   40.9095   41.5728   42.2480   42.5963
   42.6046   43.1269   43.1381   43.5245   43.5331   44.9755   44.9945   45.2070   45.2120   45.6118
   46.7138   46.7357   49.1714   49.1744   51.1340   51.1441   52.5201   52.5249   53.8874   53.8892
   55.3566   55.3731   55.5692   56.4026   59.3108   59.3212   60.6458   60.6916   61.0213   65.3477
   66.6686   66.6871   69.9148   72.1844   72.1973   72.3611   74.9965   76.9539   80.1832   80.2782
   80.8429   80.9553   82.5464   82.5865   87.6525   87.6752   88.1188   96.4455   96.4584  100.3835
  100.4164  101.6434  103.0910  106.5810  108.3205  108.3497  109.8753  109.9027  112.2301  112.2908
  115.3310  115.3879  117.9207  124.5680  124.5697  131.2272  131.4438  133.6271  146.9749  147.0501
  148.0749  148.1160  149.8966  149.9574  152.1730  152.4177  158.4812  158.6977  166.0458  166.0635
  10  1  -23.9834  -22.9861  -22.9823  -20.5989  -20.5880  -20.4242  -19.5113  -19.5074  -17.8854  -17.8820
         -16.6241  -16.6177  -16.2094  -15.6643  -15.6612  -13.9839  -13.9730  -13.1851  -13.1785  -13.0811
  -13.0798  -12.4884  -11.5814  -11.5770  -11.1250  -11.1178  -11.0981  -10.0310  -10.0296   -8.6509
   -8.6499   -8.4048   -8.0802   -7.9638   -7.6977   -7.6881   -6.7660   -6.7630   -5.3293   -5.3249
   -4.5881   -3.2398   -3.2349   -2.5257   -2.5154   -0.4247    0.2429    0.2525    1.2101    1.2151
    2.5791    3.0698    3.1108    3.1154    3.2071    4.3380    4.3577    5.3502    5.3542    6.2637
    6.4063    6.4102    6.5956    6.6007    6.7924    7.0125    7.0163    7.2766    7.2788    7.4894
    7.4919    8.5675    8.5688    9.3901    9.3933    9.6056    9.6072    9.8059    9.8319   10.2636
   10.2646   10.4854   10.4882   10.5634   11.1122   11.1223   11.4273   11.8406   11.8711   11.8750
   12.2781   13.2620   13.2642   13.7768   13.8889   13.8989   14.4389   14.4427   14.6565   14.9637
   14.9651   15.5911   15.6006   15.6150   15.6330   15.6333   16.0514   16.4443   16.4497   16.7241
   16.7271   16.9948   17.0009   17.8292   17.8302   17.8542   17.8633   17.9525   18.3833   18.3890
   18.4315   18.4504   20.4682   20.4691   22.9595   23.4519   23.4672   23.5326   23.5350   24.7706
   25.1388   25.1414   25.6440   25.8891   25.8933   25.9142   25.9166   26.9199   26.9265   27.9067
   27.9107   27.9813   28.3960   28.4071   29.2138   29.2313   29.4148   30.3927   30.3962   30.8757
   30.8797   32.2368   32.2507   32.8269   32.8441   33.7701   33.7714   33.7718   33.7813   34.8692
   35.4753   35.4845   35.5095   35.5198   35.7025   38.6362   38.6433   38.9470   38.9573   39.0799
   39.0901   39.3861   39.3903   40.1613   40.3249   40.3458   40.9810   42.0512   42.3538   42.3616
   42.4622   42.8327   42.8467   43.8089   43.8178   44.5805   44.5958   44.7961   44.7971   45.4623
   46.7186   46.7409   48.8848   48.8865   51.5896   51.5991   52.0041   52.0094   54.3328   54.3395
   55.1369   55.5679   55.9218   55.9388   59.5874   59.5977   60.5553   61.7039   61.7525   64.7352
   66.7094   66.7279   71.4702   72.1331   72.9217   72.9329   75.1676   75.9582   79.8407   79.9530
   80.0450   80.1392   84.0058   84.0470   87.3631   87.4272   87.4484   94.5893   94.6045  100.1301
  101.5409  101.5753  101.8179  103.0900  105.7627  105.8006  108.2799  108.2964  110.9138  110.9679
  113.1595  113.2089  116.0366  124.0178  124.0208  129.6376  129.8529  130.8549  146.3548  146.4246
  146.7457  146.7465  149.6763  149.7651  151.8854  152.0959  157.6814  157.8766  162.8866  162.9066
  11  1  -23.9372  -22.9403  -22.9365  -20.6020  -20.5545  -20.5436  -19.6838  -19.6799  -17.9334  -17.9319
         -16.6851  -16.6807  -15.9719  -15.4621  -15.4590  -14.1334  -14.1227  -13.0080  -13.0067  -13.0019
  -12.9954  -12.4510  -11.6110  -11.6068  -11.0482  -11.0223  -11.0153  -10.0935  -10.0919   -8.6862
   -8.6852   -8.5443   -8.2517   -8.0698   -7.6539   -7.6444   -6.9341   -6.9311   -5.3976   -5.3942
   -4.4353   -3.0794   -3.0745   -2.4828   -2.4737   -0.5276    0.1516    0.1610    1.1073    1.1123
    2.5920    3.1435    3.1459    3.2164    3.4118    4.1760    4.1952    5.4618    5.4661    6.3776
    6.3819    6.3821    6.4347    6.4386    6.6005    7.0503    7.0543    7.4088    7.4116    7.5643
    7.5660    8.6040    8.6056    9.3813    9.3842    9.3854    9.3862    9.9488    9.9745   10.0144
   10.0153   10.3073   10.3102   10.6319   11.0729   11.0823   11.2303   11.8041   11.8350   11.9386
   12.0446   13.0843   13.0876   13.8056   13.8219   13.8304   14.5378   14.5668   14.5678   15.0776
   15.0795   15.5260   15.5839   15.5844   15.6589   15.6738   16.1083   16.3397   16.3465   16.9269
   16.9278   17.1569   17.1628   17.7200   17.9636   17.9650   18.0233   18.0319   18.4129   18.4188
   18.5955   18.6178   20.4195   20.4197   22.8277   23.4534   23.4671   23.5847   23.5865   25.0199
   25.1026   25.1057   25.7566   25.7625   25.7761   25.7791   26.0447   26.5877   26.5957   27.5025
   27.8666   27.8704   28.1133   28.1246   29.1992   29.3682   29.3848   30.3152   30.3189   30.8410
   30.8435   32.1678   32.1822   32.9321   32.9480   33.6021   33.6041   33.7668   33.7769   34.7857
   35.2052   35.2139   35.3505   35.5452   35.5544   38.6491   38.6599   38.8262   38.8346   38.9953
   39.0056   39.1446   39.1490   40.1172   40.1340   40.2449   41.0639   42.0997   42.1072   42.2565
   42.4638   42.4807   42.8147   44.0489   44.0578   44.2864   44.2980   44.3348   44.3359   45.3122
   46.8063   46.8291   48.5643   48.5648   51.5385   51.5443   52.0373   52.0474   54.6782   54.7069
   54.9067   54.9184   56.4820   56.4994   59.7960   59.9075   59.9179   62.8128   62.8628   64.5861
   66.7912   66.8097   71.8906   72.9050   73.6813   73.6893   75.1029   75.3561   78.7289   78.8401
   79.8984   79.9914   85.5244   85.5668   86.6018   87.1063   87.1268   92.9429   92.9613   97.8693
   98.4628  102.8121  102.8461  102.8720  102.9518  103.1587  106.8851  106.8974  109.6945  109.7421
  111.0329  111.0733  114.0476  123.3230  123.3270  127.9407  128.1576  128.1659  142.7924  142.8709
  145.2607  145.2974  151.8022  151.9170  151.9813  152.0346  157.2441  157.4007  159.8162  159.8382
  12  1  -23.8863  -22.8900  -22.8862  -20.7765  -20.5056  -20.4947  -19.8531  -19.8492  -17.9965  -17.9961
         -16.7256  -16.7233  -15.7327  -15.2624  -15.2594  -14.2815  -14.2709  -12.9263  -12.9250  -12.8190
  -12.8127  -12.4118  -11.6509  -11.6468  -10.9935  -10.9280  -10.9213  -10.1469  -10.1452   -8.7318
   -8.7308   -8.6921   -8.4210   -8.1811   -7.6064   -7.5969   -7.1008   -7.0978   -5.4705   -5.4683
   -4.2845   -2.9199   -2.9149   -2.4354   -2.4277   -0.6369    0.0552    0.0644    0.9976    1.0026
    2.6112    3.1942    3.1951    3.3613    3.6312    4.0227    4.0414    5.5819    5.5866    6.1498
    6.1532    6.4186    6.4671    6.4710    6.5092    7.0927    7.0969    7.5364    7.5399    7.6488
    7.6499    8.6386    8.6406    9.1455    9.1465    9.3803    9.3863    9.7873    9.7882   10.0695
   10.0943   10.1329   10.1355   10.6742   11.0216   11.0387   11.0472   11.7686   11.7917   11.7999
   12.0053   12.9193   12.9239   13.7256   13.7330   13.8434   14.4180   14.6723   14.6733   15.1752
   15.1776   15.4738   15.5176   15.5183   15.7170   15.7310   16.1579   16.2637   16.2719   17.1597
   17.1601   17.3319   17.3373   17.4907   18.1152   18.1172   18.1992   18.2071   18.4456   18.4515
   18.7752   18.7922   20.3698   20.3701   22.7061   23.4589   23.4709   23.6131   23.6145   25.0563
   25.0601   25.2905   25.5758   25.5824   25.6078   25.6111   26.2853   26.2936   26.4577   27.0325
   27.8147   27.8244   27.8615   27.8669   28.9986   29.5113   29.5269   30.2458   30.2496   30.8008
   30.8020   32.1463   32.1610   33.0221   33.0365   33.4638   33.4663   33.7721   33.7830   34.6944
   34.9550   34.9631   34.9929   35.5628   35.5710   38.5289   38.5439   38.5918   38.5986   38.8952
   38.8997   39.0025   39.0129   40.0101   40.0232   40.3269   41.1598   41.8508   41.8579   42.0201
   42.0382   42.2870   43.1659   43.8516   43.8532   44.1188   44.1280   44.2336   44.2424   45.1647
   46.9729   46.9963   48.2068   48.2076   51.1326   51.1383   52.4592   52.4699   53.8332   54.1844
   55.6096   55.6249   57.0339   57.0514   58.9077   60.2775   60.2880   63.9656   64.0166   64.8252
   66.9336   66.9517   71.6346   73.3228   74.4396   74.4471   75.2800   75.5645   77.5084   77.6172
   79.7299   79.8213   85.8421   86.6779   86.6963   87.0529   87.0988   91.4840   91.5066   94.6466
   96.6600  100.0072  100.0560  103.1915  104.1628  104.1962  105.4850  105.4942  108.6007  108.6422
  109.0134  109.0435  111.9768  122.5003  122.5051  125.5965  126.1673  126.3750  139.2958  139.3822
  143.8060  143.8738  151.8208  151.9745  153.1895  153.3580  156.8921  156.9157  157.6508  157.7445
  13  1  -23.8306  -22.8351  -22.8312  -20.9474  -20.4525  -20.4416  -20.0190  -20.0151  -18.0752  -18.0730
         -16.7458  -16.7454  -15.4921  -15.0659  -15.0629  -14.4277  -14.4173  -12.8359  -12.8345  -12.6373
  -12.6312  -12.3714  -11.7020  -11.6981  -10.9340  -10.8431  -10.8366  -10.1905  -10.1886   -8.8466
   -8.7868   -8.7858   -8.5875   -8.2969   -7.5552   -7.5458   -7.2655   -7.2625   -5.5478   -5.5466
   -4.1357   -2.7614   -2.7564   -2.3837   -2.3772   -0.7516   -0.0455   -0.0366    0.8816    0.8867
    2.6370    3.2590    3.2595    3.5109    3.8643    3.8807    3.8987    5.7096    5.7147    5.9169
    5.9193    6.2499    6.5038    6.5076    6.6440    7.1395    7.1440    7.6556    7.6599    7.7415
    7.7422    8.6561    8.6585    8.9028    8.9037    9.3833    9.3894    9.5876    9.5886    9.9671
    9.9686   10.1630   10.1862   10.6895   10.8026   11.0113   11.0188   11.5227   11.7296   11.7606
   12.0743   12.7784   12.7842   13.6029   13.6090   13.8886   14.2965   14.7462   14.7502   15.2235
   15.2256   15.4361   15.4722   15.4724   15.7928   15.8050   16.1988   16.2151   16.2246   17.2654
   17.4125   17.4137   17.5163   17.5209   18.2784   18.2810   18.3823   18.3892   18.4822   18.4880
   18.9657   18.9770   20.3212   20.3219   22.5970   23.4682   23.4786   23.6190   23.6199   24.9995
   25.0039   25.3325   25.3379   25.4057   25.4090   25.5813   26.0316   26.0381   26.5728   26.8809
   27.5028   27.5137   27.8998   27.9039   28.8144   29.6387   29.6532   30.1864   30.1904   30.7576
   30.7577   32.1656   32.1803   33.0945   33.1073   33.3535   33.3564   33.7890   33.8006   34.5945
   34.6329   34.7275   34.7352   35.5616   35.5688   38.2888   38.3066   38.3800   38.3854   38.6336
   38.6383   38.9756   38.9862   39.9876   39.9987   40.4096   41.2702   41.5324   41.5516   41.6211
   41.6285   42.1986   43.3702   43.3712   43.4224   44.0669   44.0749   44.3536   44.3619   45.0231
   47.2145   47.2386   47.8171   47.8189   50.7932   50.7983   52.8628   52.8738   52.9627   53.6482
   56.4206   56.4386   57.5754   57.5929   58.0788   60.7020   60.7130   65.1531   65.1987   65.3485
   67.1476   67.1650   71.3668   72.5973   75.1864   75.1938   75.7950   76.1945   76.3000   76.5965
   79.5242   79.6136   85.0849   86.1343   86.1538   88.5362   88.5829   90.1703   90.1977   92.0456
   94.7505   97.1449   97.1931  103.2922  104.0386  104.0408  105.5422  105.5749  107.1595  107.1784
  107.6499  107.6858  109.8458  121.5763  121.5815  123.2034  124.3229  124.5278  135.9529  136.0465
  142.4755  142.5693  151.8925  152.0251  153.3556  153.5494  154.1522  154.1773  159.0026  159.0564
  14  1  -23.7703  -22.7756  -22.7717  -21.1147  -20.3950  -20.3842  -20.1814  -20.1775  -18.1660  -18.1621
         -16.7484  -16.7471  -15.2509  -14.8733  -14.8704  -14.5718  -14.5615  -12.7365  -12.7350  -12.4578
  -12.4519  -12.3310  -11.7646  -11.7609  -10.8698  -10.7683  -10.7622  -10.2248  -10.2227   -9.0057
   -8.8496   -8.8485   -8.7506   -8.4162   -7.5006   -7.4913   -7.4277   -7.4247   -5.6287   -5.6285
   -3.9890   -2.6040   -2.5990   -2.3276   -2.3223   -0.8710   -0.1498   -0.1410    0.7601    0.7651
    2.6699    3.3395    3.3399    3.6597    3.7517    3.7691    4.1099    5.6824    5.6840    5.8438
    5.8494    6.0987    6.5450    6.5487    6.7853    7.1908    7.1955    7.7624    7.7676    7.8418
    7.8422    8.5494    8.5506    8.7580    8.7605    9.3823    9.3870    9.4233    9.4245    9.8178
    9.8188   10.2256   10.2467   10.5750   10.6776   10.9924   10.9983   11.2402   11.6774   11.7073
   12.1450   12.6762   12.6829   13.4590   13.4639   13.9407   14.1751   14.7825   14.7895   15.1669
   15.1676   15.4135   15.5057   15.5078   15.8990   15.9089   16.1901   16.2008   16.2299   17.0451
   17.6785   17.6799   17.7064   17.7098   18.4475   18.4507   18.5229   18.5287   18.5729   18.5785
   19.1520   19.1853   20.2768   20.2777   22.5015   23.4807   23.4896   23.6049   23.6056   24.9314
   24.9364   25.0330   25.0359   25.1721   25.1752   25.8238   25.8272   25.8913   26.1245   27.1791
   27.1899   27.3126   27.9833   27.9873   28.6479   29.7469   29.7603   30.1384   30.1427   30.7131
   30.7139   32.2180   32.2326   33.1485   33.1595   33.2688   33.2720   33.8173   33.8296   34.2766
   34.4830   34.5269   34.5313   35.5418   35.5480   37.9752   37.9942   38.1929   38.1972   38.3537
   38.3586   38.9232   38.9339   39.9982   40.0093   40.4951   41.0408   41.0596   41.3967   41.4197
   41.4270   41.9804   42.9097   42.9104   43.5729   44.1098   44.1175   44.4045   44.4121   44.8902
   47.4027   47.4054   47.5290   47.5539   50.5226   50.5267   52.1081   53.0600   53.2708   53.2771
   57.3097   57.3295   57.4324   58.1059   58.1233   61.1842   61.1959   66.0660   66.3638   66.4227
   67.4383   67.4549   71.0891   71.7615   74.8071   74.9079   75.9249   75.9304   76.0499   77.9946
   79.2664   79.3533   84.3215   85.4718   85.4912   88.9472   88.9794   89.9188   89.9248   90.0063
   92.7733   94.3580   94.4058  102.5101  102.5251  103.4593  105.5219  105.5297  106.8468  106.8762
  106.8782  106.9078  107.6745  120.5842  120.5893  121.0074  122.4522  122.6522  132.8528  132.9529
  141.3383  141.4546  151.6117  151.6354  151.9971  152.1085  153.0668  153.2595  160.6021  160.6397
  15  1  -23.7053  -22.7115  -22.7076  -21.2780  -20.3402  -20.3363  -20.3332  -20.3223  -18.2663  -18.2611
         -16.7347  -16.7320  -15.0094  -14.7137  -14.7038  -14.6849  -14.6822  -12.6279  -12.6264  -12.2920
  -12.2812  -12.2757  -11.8385  -11.8350  -10.8009  -10.7045  -10.6988  -10.2517  -10.2494   -9.1675
   -8.9177   -8.9173   -8.9089   -8.5381   -7.5869   -7.5840   -7.4428   -7.4335   -5.7135   -5.7127
   -3.8442   -2.4477   -2.4427   -2.2671   -2.2631   -0.9943   -0.2568   -0.2482    0.6335    0.6386
    2.7102    3.4363    3.4366    3.6376    3.6543    3.8008    4.3671    5.4494    5.4501    5.9711
    5.9835    5.9895    6.5909    6.5946    6.9313    7.2464    7.2514    7.8533    7.8593    7.9491
    7.9492    8.2915    8.2920    8.7248    8.7284    9.3104    9.3118    9.3589    9.3593    9.7021
    9.7082   10.2564   10.2750   10.3410   10.6393   10.9390   10.9824   10.9939   11.6008   11.6286
   12.2168   12.6259   12.6331   13.3015   13.3055   13.9994   14.0549   14.7811   14.7907   15.0420
   15.0420   15.4063   15.5854   15.5887   16.0392   16.0468   16.1833   16.1951   16.2505   16.8305
   17.8974   17.8994   17.9519   17.9534   18.5679   18.5735   18.6165   18.6206   18.7712   18.7752
   19.3408   19.4083   20.2403   20.2411   22.4192   23.4960   23.5034   23.5740   23.5746   24.7014
   24.7019   24.8514   24.8573   24.9149   24.9174   25.6420   25.6424   25.6888   26.2185   26.8459
   26.8564   27.7508   28.1068   28.1107   28.5004   29.8341   29.8465   30.1030   30.1075   30.6707
   30.6720   32.2960   32.3102   33.1840   33.1932   33.2066   33.2099   33.8558   33.8688   33.9297
   34.3390   34.3542   34.3753   35.5042   35.5097   37.6259   37.6453   38.0319   38.0353   38.0493
   38.0542   38.8537   38.8647   39.9969   40.0093   40.5746   40.5854   40.5927   41.2524   41.2590
   41.5430   41.6181   42.4884   42.4917   43.6317   44.2318   44.2398   44.3885   44.3951   44.7690
   46.9753   46.9789   47.9126   47.9386   50.3163   50.3190   51.2753   52.4309   53.6875   53.6959
   57.0364   58.2467   58.2680   58.6241   58.6418   61.7257   61.7383   66.9763   67.5828   67.6409
   67.8074   67.8230   70.8040   70.9806   73.3922   73.4885   76.3316   76.6389   76.6431   78.9438
   79.0279   79.2820   83.5270   84.6950   84.7139   87.7606   87.7967   88.3032   90.7838   91.1315
   91.1904   91.6903   91.7331  100.9437  100.9535  103.6575  104.1375  104.1406  105.4783  106.1832
  106.2110  108.0528  108.0862  119.0283  119.5605  119.5650  120.6188  120.8113  130.0873  130.1929
  140.4518  140.5880  149.2726  149.2992  152.1094  152.2054  152.6987  152.8834  162.0223  162.0475
  16  1  -23.6356  -22.6428  -22.6390  -21.4374  -20.4950  -20.4911  -20.2673  -20.2565  -18.3737  -18.3674
         -16.7066  -16.7026  -14.8526  -14.8426  -14.7684  -14.5023  -14.4995  -12.5103  -12.5086  -12.2561
  -12.1086  -12.1034  -11.9229  -11.9196  -10.7274  -10.6525  -10.6471  -10.2744  -10.2719   -9.3292
   -9.0642   -8.9877   -8.9865   -8.6620   -7.7427   -7.7398   -7.3818   -7.3726   -5.8010   -5.7994
   -3.7012   -2.2925   -2.2875   -2.2024   -2.1995   -1.1207   -0.3658   -0.3575    0.5027    0.5078
    2.7580    3.5398    3.5494    3.5497    3.5558    3.9250    4.6348    5.2203    5.2205    5.8758
    6.1272    6.1337    6.6419    6.6455    7.0800    7.3064    7.3116    7.9249    7.9318    8.0087
    8.0090    8.0626    8.0628    8.6618    8.6656    9.2669    9.2680    9.2821    9.2867    9.6478
    9.6596   10.1031   10.2569   10.2728   10.5762   10.6396   10.9804   10.9861   11.4950   11.5203
   12.2891   12.6312   12.6384   13.1397   13.1429   13.9366   14.0644   14.7480   14.7595   14.8888
   14.8891   15.4138   15.6737   15.6778   16.1890   16.1981   16.2096   16.2189   16.2604   16.6222
   18.0839   18.0841   18.2284   18.2297   18.6168   18.6223   18.7790   18.7841   18.9770   18.9790
   19.5340   19.6417   20.2170   20.2175   22.3485   23.5130   23.5190   23.5278   23.5286   24.3586
   24.3600   24.6436   24.6459   24.7607   24.7669   25.2666   25.4678   25.4699   26.5061   26.5160
   26.5596   28.1935   28.2617   28.2654   28.3730   29.8999   29.9112   30.0809   30.0855   30.6319
   30.6337   32.3921   32.4058   33.1638   33.1670   33.2026   33.2100   33.6000   33.9017   33.9153
   34.1935   34.2068   34.2433   35.4509   35.4557   37.2633   37.2826   37.7132   37.7178   37.8997
   37.9026   38.7753   38.7864   39.9534   39.9678   40.1551   40.1723   40.6825   41.1031   41.1274
   41.1325   41.7102   42.1262   42.1325   43.6201   44.3154   44.3210   44.4225   44.4309   44.6620
   46.5429   46.5472   48.3658   48.3928   50.1624   50.1633   50.4649   51.7542   54.1323   54.1402
   56.9167   59.1292   59.1473   59.2033   59.2259   62.3263   62.3401   68.0419   68.2541   68.2685
   68.7918   68.8497   70.2892   70.5145   71.9828   72.0739   76.6421   77.3360   77.3388   78.5473
   78.6283   80.3949   82.6490   83.8173   83.8350   86.5707   86.6089   86.9897   88.8643   89.1044
   89.1537   92.1773   92.2330   99.3474   99.3556  103.0231  103.0354  103.2753  103.9103  105.6388
  105.6642  108.9038  108.9422  117.2755  118.5391  118.5423  118.9288  119.1089  127.7566  127.8661
  139.8653  140.0188  147.1136  147.1412  152.2307  152.3100  152.3614  152.5363  163.1006  163.1122
  17  1  -23.5611  -22.5696  -22.5658  -21.5928  -20.6460  -20.6421  -20.1972  -20.1864  -18.4857  -18.4785
         -16.6662  -16.6613  -14.9889  -14.9790  -14.5284  -14.3249  -14.3222  -12.3837  -12.3819  -12.2257
  -12.0164  -12.0134  -11.9407  -11.9358  -10.6494  -10.6129  -10.6080  -10.2974  -10.2947   -9.4878
   -9.2133   -9.0554   -9.0542   -8.7871   -7.8946   -7.8918   -7.3178   -7.3087   -5.8906   -5.8881
   -3.5597   -2.1384   -2.1334   -2.1334   -2.1315   -1.2498   -0.4762   -0.4682    0.3681    0.3733
    2.8133    3.4596    3.4749    3.6788    3.6790    4.0209    4.9121    4.9968    4.9977    5.8235
    6.2731    6.2801    6.6980    6.7016    7.2284    7.3707    7.3761    7.7213    7.7216    7.9748
    7.9825    8.1819    8.1824    8.5560    8.5597    9.1643    9.1712    9.2878    9.2883    9.6495
    9.6641    9.8647   10.2304   10.2438   10.3280   10.4906   10.9832   10.9873   11.3654   11.3884
   12.3617   12.6837   12.6911   12.9839   12.9864   13.8211   14.1357   14.6905   14.7033   14.7200
   14.7204   15.4349   15.7606   15.7654   16.2021   16.2143   16.2597   16.4040   16.4097   16.4206
   18.2577   18.2595   18.5042   18.5052   18.6689   18.6743   18.9271   18.9333   19.1891   19.1893
   19.7320   19.8825   20.2146   20.2147   22.2862   23.4642   23.4653   23.5307   23.5355   24.0216
   24.0245   24.3736   24.3751   24.6577   24.6647   24.8587   25.2962   25.3004   26.1629   26.1722
   26.9089   28.2674   28.4387   28.4421   28.6384   29.9450   29.9555   30.0722   30.0769   30.5979
   30.5998   32.4993   32.5122   33.1371   33.1401   33.2069   33.2125   33.2976   33.9513   33.9654
   34.0741   34.0925   34.1052   35.3844   35.3889   36.9010   36.9198   37.3456   37.3498   37.7959
   37.7984   38.6950   38.7062   39.7939   39.8098   39.8502   39.8662   40.4915   40.7881   41.0256
   41.0305   41.8379   41.8470   41.9018   43.5566   44.2004   44.2053   44.5723   44.6743   44.6830
   46.1153   46.1204   48.8866   48.9149   49.6788   50.0420   50.0429   51.0392   54.6045   54.6115
   57.0693   59.6182   59.6371   60.1480   60.1722   62.9852   63.0006   68.7751   68.7887   69.2447
   69.6994   69.9662   70.0248   70.2251   70.6257   70.7111   76.9829   78.0170   78.0184   78.0714
   78.1490   81.2946   81.5966   82.8617   82.8775   85.3602   85.3983   85.9544   86.6799   86.7284
   87.1340   92.9116   92.9709   97.8064   97.8152  101.0764  102.1858  102.2062  104.2149  105.1861
  105.2091  109.2102  109.2625  115.7483  117.5111  117.5469  117.5482  117.6710  125.9837  126.0942
  139.6184  139.7868  145.1084  145.1371  152.0842  152.2484  152.3530  152.4162  163.7561  163.7601
  18  1  -23.4820  -22.4918  -22.4880  -21.7440  -20.7931  -20.7892  -20.1230  -20.1122  -18.6005  -18.5926
         -16.6155  -16.6098  -15.1220  -15.1123  -14.2903  -14.1533  -14.1506  -12.2486  -12.2468  -12.2040
  -12.1178  -12.1148  -11.7784  -11.7741  -10.5863  -10.5819  -10.5670  -10.3265  -10.3237   -9.6394
   -9.3564   -9.1152   -9.1139   -8.9127   -8.0423   -8.0395   -7.2508   -7.2419   -5.9816   -5.9784
   -3.4196   -2.0603   -2.0594   -1.9852   -1.9801   -1.3809   -0.5875   -0.5797    0.2304    0.2356
    2.8760    3.3981    3.4126    3.8239    3.8242    4.0776    4.7815    4.7832    5.1982    5.8245
    6.4183    6.4258    6.7596    6.7630    7.3705    7.4357    7.4371    7.4394    7.4450    8.0017
    8.0102    8.3066    8.3073    8.4263    8.4298    9.0309    9.0385    9.3507    9.3508    9.6311
    9.6809    9.6968   10.0098   10.1807   10.1921   10.3849   10.9842   10.9869   11.2214   11.2426
   12.4343   12.7704   12.7783   12.8458   12.8476   13.7089   14.2132   14.5404   14.5409   14.6149
   14.6284   15.4680   15.8429   15.8484   16.2185   16.2260   16.2311   16.2488   16.6167   16.6217
   18.4131   18.4169   18.7223   18.7279   18.7768   18.7778   19.0512   19.0586   19.4031   19.4056
   19.9346   20.1282   20.2419   20.2429   22.2283   23.3731   23.3748   23.5482   23.5517   23.7031
   23.7072   24.1240   24.1245   24.4654   24.5430   24.5510   25.1260   25.1319   25.8212   25.8296
   27.2573   28.1855   28.6286   28.6315   29.0830   29.9715   29.9812   30.0767   30.0813   30.5686
   30.5706   32.6115   32.6237   33.0361   33.1234   33.1259   33.2002   33.2041   33.9351   34.0000
   34.0084   34.0145   34.0148   35.3082   35.3124   36.5485   36.5667   36.9508   36.9546   37.7220
   37.7241   38.6189   38.6301   39.4931   39.5077   39.6855   39.7020   39.7851   40.9035   40.9602
   40.9649   41.6264   41.6370   42.1213   43.4541   44.0617   44.0659   44.5031   44.9796   44.9883
   45.7016   45.7078   48.9218   49.4748   49.5032   49.9339   49.9373   50.2965   55.0970   55.1031
   57.4720   60.0862   60.1063   61.0366   61.0634   63.7016   63.7187   69.2074   69.3671   69.3692
   69.3917   69.4659   69.9345   70.5663   71.0812   71.1366   77.3547   77.5145   77.5875   78.6849
   78.6850   80.2657   81.8604   81.8739   81.9596   84.1350   84.1706   84.4003   84.4468   85.1454
   85.7235   93.1582   93.2132   96.5575   96.5759   98.8940  101.6052  101.6311  104.5586  104.8056
  104.8141  108.8277  108.9028  114.4347  116.3985  116.5324  116.5998  116.6010  124.9092  125.0160
  139.7379  139.9189  143.2269  143.2575  151.8689  152.0217  152.4739  152.5214  163.9409  163.9622
  19  1  -23.3981  -22.4095  -22.4057  -21.8909  -20.9362  -20.9324  -20.0447  -20.0340  -18.7166  -18.7081
         -16.5557  -16.5494  -15.2520  -15.2424  -14.0550  -13.9875  -13.9848  -12.2257  -12.2229  -12.1948
  -12.1058  -12.1039  -11.6227  -11.6188  -10.5733  -10.5695  -10.4802  -10.3678  -10.3649   -9.7796
   -9.4926   -9.1610   -9.1597   -9.0382   -8.1852   -8.1824   -7.1810   -7.1722   -6.0736   -6.0696
   -3.2806   -1.9832   -1.9831   -1.8329   -1.8278   -1.5136   -0.6989   -0.6915    0.0902    0.0954
    2.9460    3.3560    3.3697    3.9841    3.9846    4.0896    4.5760    4.5785    5.4921    5.8835
    6.5552    6.5629    6.8265    6.8298    7.1596    7.1605    7.5033    7.5124    7.5183    8.0054
    8.0145    8.2882    8.2914    8.4357    8.4365    8.8951    8.9031    9.4099    9.4388    9.4398
    9.6867    9.7281    9.7447   10.1116   10.1212   10.2620   10.9739   10.9754   11.0717   11.0918
   12.5068   12.7381   12.7394   12.8799   12.8883   13.6004   14.2971   14.3533   14.3539   14.5255
   14.5394   15.5114   15.9191   15.9253   16.0388   16.2281   16.2350   16.2478   16.8429   16.8475
   18.5426   18.5482   18.7784   18.7840   19.0411   19.0415   19.1425   19.1510   19.6167   19.6213
   20.1417   20.3091   20.3109   20.3764   22.1700   23.2355   23.2380   23.4144   23.4190   23.5647
   23.5675   23.9209   23.9212   24.0874   24.4157   24.4248   24.9588   24.9660   25.4873   25.4945
   27.5912   28.1289   28.8228   28.8251   29.5244   29.9819   29.9909   30.0936   30.0981   30.5434
   30.5454   32.7251   32.7361   32.8336   33.1194   33.1214   33.1863   33.1885   33.7624   33.9677
   33.9761   34.0426   34.0576   35.2263   35.2303   36.2140   36.2312   36.5391   36.5425   37.6783
   37.6800   38.5515   38.5629   39.0268   39.2476   39.2613   39.4737   39.4895   40.9220   40.9265
   41.0299   41.4790   41.4899   42.3721   43.3213   43.9167   43.9206   44.4578   45.2726   45.2758
   45.3650   45.3840   48.2067   49.5342   49.8231   49.8255   50.1251   50.1550   55.5923   55.5971
   58.0974   60.5248   60.5464   61.7925   61.8240   64.4747   64.4939   68.3478   68.4158   68.8274
   69.6523   70.0240   70.0329   71.9798   72.0927   72.1566   76.8738   76.9428   77.7601   78.6268
   79.3440   79.3441   80.8542   80.8658   82.2749   82.3204   82.3852   82.9180   82.9491   84.5182
   84.6846   92.5473   92.5836   96.0318   96.0758   96.7371  101.2477  101.2775  104.4131  104.4502
  104.9946  107.8660  107.9640  113.3124  115.4360  115.5471  115.7056  115.7098  124.6042  124.7021
  140.2315  140.4262  141.4421  141.4789  151.7059  151.8462  152.5935  152.6258  163.6563  163.6961
  20  1  -23.3097  -22.3226  -22.3188  -22.0337  -21.0752  -21.0714  -19.9624  -19.9517  -18.8328  -18.8239
         -16.4881  -16.4813  -15.3785  -15.3691  -13.8273  -13.8247  -13.8236  -12.3392  -12.3365  -12.2026
  -11.9563  -11.9542  -11.4745  -11.4711  -10.5743  -10.5710  -10.4269  -10.4238  -10.3890   -9.9032
   -9.6208   -9.1876   -9.1861   -9.1632   -8.3228   -8.3201   -7.1084   -7.0998   -6.1661   -6.1614
   -3.1426   -1.9029   -1.9020   -1.6813   -1.6762   -1.6473   -0.8100   -0.8030   -0.0521   -0.0469
    3.0231    3.3340    3.3469    4.0586    4.1597    4.1602    4.3822    4.3854    5.7931    5.9964
    6.6403    6.6458    6.8990    6.9021    6.9378    6.9414    7.5900    7.5958    7.6090    7.9868
    7.9963    8.1494    8.1526    8.5665    8.5670    8.7639    8.7725    9.2154    9.3600    9.5444
    9.5456    9.7856    9.8025   10.0258   10.0340   10.1251   10.9226   10.9418   10.9420   10.9421
   12.5793   12.6732   12.6738   13.0035   13.0127   13.4960   14.1612   14.1617   14.3874   14.4254
   14.4395   15.5631   15.8590   15.9886   15.9954   16.1985   16.2493   16.2620   17.0784   17.0829
   18.6383   18.6452   18.8342   18.8399   19.1974   19.2066   19.2947   19.2948   19.8224   19.8286
   20.3525   20.4206   20.4228   20.6251   22.1062   23.0382   23.0410   23.1689   23.1741   23.5789
   23.5806   23.7249   23.7834   23.7841   24.2725   24.2829   24.7985   24.8067   25.1713   25.1772
   27.8914   28.0992   29.0135   29.0149   29.9598   29.9784   29.9869   30.1215   30.1258   30.5208
   30.5228   32.7126   32.8398   32.8503   33.1221   33.1234   33.1691   33.1699   33.5696   33.9671
   33.9761   34.0739   34.0893   35.1435   35.1474   35.9050   35.9211   36.1236   36.1268   37.6648
   37.6661   38.2445   38.4967   38.5081   39.0490   39.0618   39.2370   39.2511   40.9062   40.9106
   41.1679   41.3755   41.3858   42.6584   43.1650   43.7810   43.7846   44.4407   44.9360   44.9400
   45.7313   45.7438   47.5426   48.7724   49.6852   49.6901   50.8355   50.8665   56.0583   56.0616
   58.9205   60.9221   60.9454   62.2847   62.3244   65.3048   65.3263   67.6824   67.7370   68.5386
   69.3802   70.7320   70.7402   72.9534   72.9893   73.5141   76.1520   76.2141   76.7662   78.1953
   79.8907   79.9026   79.9995   80.0008   80.3159   80.3581   81.7416   81.7664   82.5835   83.9534
   84.0426   91.2571   91.2796   94.6139   96.1350   96.2011  101.0752  101.1076  104.0615  104.0953
  105.4447  106.5923  106.7072  112.3509  114.4847  114.5797  114.8688  114.8767  124.9622  125.0488
  139.7333  139.7556  141.1174  141.3010  151.5790  151.7056  152.7153  152.7331  162.9192  162.9775
  21  1  -23.2165  -22.2313  -22.2275  -22.1720  -21.2101  -21.2063  -19.8762  -19.8656  -18.9482  -18.9390
         -16.4135  -16.4062  -15.5015  -15.4922  -13.6725  -13.6700  -13.5975  -12.4572  -12.4546  -12.2323
  -11.8012  -11.7991  -11.3346  -11.3317  -10.5894  -10.5867  -10.5064  -10.5035  -10.2941  -10.0047
   -9.7398   -9.2871   -9.1915   -9.1899   -8.4546   -8.4519   -7.0332   -7.0247   -6.2585   -6.2533
   -3.0053   -1.8188   -1.8170   -1.7820   -1.5303   -1.5252   -0.9204   -0.9137   -0.1962   -0.1909
    3.1068    3.3325    3.3445    3.9965    4.2004    4.2046    4.3495    4.3495    6.1004    6.1526
    6.5029    6.5040    6.9397    6.9483    6.9768    6.9797    7.6680    7.6720    7.6783    7.9476
    7.9574    8.0142    8.0173    8.6144    8.6187    8.7233    8.7283    9.0307    9.0682    9.6634
    9.6650    9.8511    9.8685    9.9258    9.9329    9.9771   10.7783   10.7974   10.8791   10.8798
   12.6521   12.6592   12.6593   13.1357   13.1457   13.3958   13.9662   13.9668   14.3166   14.3307
   14.4845   15.6213   15.6870   16.0506   16.0580   16.1607   16.2597   16.2722   17.3192   17.3238
   18.6923   18.7000   18.8893   18.8952   19.2197   19.2290   19.5329   19.5334   20.0091   20.0162
   20.5658   20.5732   20.5757   20.8731   22.0318   22.7941   22.7968   22.9809   22.9860   23.3778
   23.5904   23.5916   23.7027   23.7034   24.1068   24.1183   24.6504   24.6593   24.8882   24.8929
   28.0969   28.1356   29.1934   29.1939   29.9633   29.9711   30.1585   30.1624   30.3858   30.4992
   30.5010   32.7001   32.9601   32.9697   33.1282   33.1286   33.1519   33.1525   33.3560   34.0013
   34.0103   34.0880   34.1039   35.0650   35.0690   35.6290   35.6438   35.7179   35.7212   37.4579
   37.6814   37.6816   38.4568   38.4681   38.8888   38.9009   38.9949   39.0071   40.9085   40.9128
   41.2972   41.3070   41.3183   42.9839   42.9911   43.6672   43.6708   44.4561   44.6039   44.6086
   46.1537   46.1659   46.9388   48.0195   49.5110   49.5176   51.5999   51.6318   56.4427   56.4432
   59.9211   61.2623   61.2875   62.3850   62.4341   66.1929   66.2171   67.5555   67.5937   68.3375
   69.1228   71.4802   71.4879   73.5933   73.6256   74.7963   75.0916   75.3493   75.4021   78.5058
   78.5834   78.6936   79.0312   79.0396   80.6280   80.6402   80.6747   80.6819   82.5790   83.4320
   83.6964   89.7712   89.7874   92.5326   96.4792   96.5613  101.0513  101.0852  103.7026  103.7365
  105.2161  105.3425  105.9391  111.5151  113.5704  113.6530  114.0934  114.1053  125.7658  125.8414
  138.0880  138.1170  142.3242  142.5132  151.4664  151.5771  152.8475  152.8521  161.7745  161.8498
  22  1  -23.1187  -22.3061  -22.1354  -22.1316  -21.3409  -21.3370  -19.7862  -19.7757  -19.0622  -19.0527
         -16.3324  -16.3248  -15.6206  -15.6115  -13.5227  -13.5202  -13.3786  -12.5790  -12.5765  -12.2880
  -11.6423  -11.6400  -11.2040  -11.2017  -10.6188  -10.6167  -10.6070  -10.6042  -10.1952  -10.0796
   -9.8480   -9.4095   -9.1721   -9.1704   -8.5799   -8.5772   -6.9554   -6.9471   -6.3506   -6.3449
   -2.8685   -1.9171   -1.7309   -1.7284   -1.3799   -1.3748   -1.0296   -1.0233   -0.3415   -0.3363
    3.1968    3.3516    3.3627    3.9122    4.0337    4.0387    4.5514    4.5514    6.2505    6.2509
    6.3401    6.4141    7.0558    7.0596    7.0623    7.0657    7.6568    7.7585    7.7648    7.8855
    7.8885    7.8904    7.9002    8.4973    8.5038    8.7000    8.8552    8.8583    8.9935    9.7932
    9.7952    9.8137    9.8199    9.8212    9.9239    9.9415   10.6415   10.6604   10.7852   10.7867
   12.6964   12.6967   12.7256   13.2725   13.2831   13.2998   13.7708   13.7714   14.2008   14.2148
   14.5884   15.5226   15.6839   16.1048   16.1120   16.1166   16.2650   16.2771   17.5609   17.5657
   18.6982   18.7061   18.9429   18.9491   19.2174   19.2266   19.7513   19.7520   20.1626   20.1696
   20.7593   20.7617   20.7794   21.1203   21.9425   22.5264   22.5288   22.8656   22.8699   23.0468
   23.5988   23.5994   23.6574   23.6579   23.9105   23.9223   24.5209   24.5302   24.6562   24.6603
   28.1211   28.3043   29.3563   29.3569   29.9376   29.9449   30.2019   30.2055   30.4765   30.4782
   30.7991   32.8182   33.0933   33.1025   33.1191   33.1348   33.1350   33.1376   33.1394   34.0627
   34.0711   34.0778   34.0941   34.9969   35.0010   35.3363   35.3396   35.3930   35.4062   36.6836
   37.7259   37.7262   38.4333   38.4446   38.7596   38.7608   38.7711   38.7713   40.9250   40.9293
   41.2337   41.2420   41.4791   42.8048   43.3525   43.5854   43.5891   44.3099   44.3149   44.5093
   46.4019   46.5967   46.6090   47.2880   49.2910   49.2988   52.4097   52.4422   56.6624   56.6665
   61.0837   61.5276   61.5548   62.1701   62.2234   67.1399   67.1683   67.9514   67.9738   68.2191
   68.8847   72.2496   72.2558   72.8040   73.8921   73.9185   74.4721   74.5122   76.7210   77.0204
   77.0683   78.3176   78.3296   79.1588   79.6527   79.6625   81.3413   81.3432   82.4053   83.0457
   83.4688   88.3022   88.3150   90.5030   96.9474   97.0435  101.1441  101.1790  103.3347  103.3691
  103.8461  103.9799  106.4692  110.7702  112.7861  112.8573  113.3888  113.4053  126.8271  126.8935
  136.4995  136.5317  143.8233  144.0084  151.3377  151.4291  153.0007  153.0070  160.2975  160.3863
  23  1  -23.0163  -22.4357  -22.0351  -22.0312  -21.4674  -21.4635  -19.6925  -19.6821  -19.1742  -19.1645
         -16.2456  -16.2377  -15.7359  -15.7269  -13.3773  -13.3749  -13.1689  -12.7043  -12.7018  -12.3724
  -11.4811  -11.4788  -11.0835  -11.0818  -10.7264  -10.7236  -10.6625  -10.6610  -10.1246  -10.0925
   -9.9434   -9.5299   -9.1312   -9.1293   -8.6978   -8.6952   -6.8751   -6.8670   -6.4419   -6.4357
   -2.7321   -2.0526   -1.6395   -1.6363   -1.2301   -1.2249   -1.1372   -1.1313   -0.4880   -0.4828
    3.2924    3.3912    3.4014    3.8149    3.8822    3.8880    4.7659    4.7659    5.9878    5.9878
    6.5483    6.7313    7.1463    7.1487    7.1795    7.1898    7.5642    7.7671    7.7698    7.8185
    7.8279    7.8497    7.8562    8.3688    8.3777    8.3844    8.9967    8.9998    9.0023    9.6608
    9.6909    9.6965    9.9324    9.9346   10.0035   10.0213   10.5135   10.5323   10.6654   10.6674
   12.7792   12.7797   12.8002   13.2080   13.4109   13.4223   13.5777   13.5784   14.0790   14.0927
   14.6994   15.3661   15.7494   16.0640   16.1511   16.1600   16.2641   16.2759   17.7983   17.8034
   18.6524   18.6601   18.9943   19.0009   19.1984   19.2072   19.9443   19.9450   20.2678   20.2736
   20.9710   20.9733   20.9900   21.3682   21.8345   22.2510   22.2532   22.7316   22.8352   22.8377
   23.6044   23.6046   23.6321   23.6326   23.6843   23.6954   24.4171   24.4264   24.4868   24.4913
   28.1685   28.3909   29.4981   29.4998   29.9015   29.9081   30.2490   30.2522   30.4506   30.4524
   31.1965   32.8600   33.0765   33.1290   33.1316   33.1373   33.1387   33.2467   33.2560   34.0334
   34.0499   34.1434   34.1509   34.9457   34.9497   34.9954   34.9982   35.2027   35.2142   35.9342
   37.7978   37.7991   38.4269   38.4381   38.5429   38.5515   38.6560   38.6674   40.9523   40.9567
   41.1770   41.1843   41.6510   42.6109   43.5434   43.5472   43.7676   44.0592   44.0642   44.6057
   45.9353   46.5880   47.0485   47.0606   49.0205   49.0295   53.2520   53.2846   56.6271   56.6382
   61.7022   61.7315   61.9002   61.9508   62.3964   68.0878   68.1823   68.2236   68.6706   68.6768
   68.6968   70.8385   73.0147   73.0238   73.5134   73.5492   73.6414   73.6567   75.9555   75.9956
   77.8026   77.8171   78.3700   78.8124   78.8145   79.6709   82.0520   82.0531   82.1017   82.7405
   83.3682   86.9333   86.9437   88.5416   97.5378   97.6467  101.3265  101.3622  102.5315  102.6690
  102.9607  102.9955  107.0277  110.0858  112.2075  112.2679  112.7739  112.7954  128.0309  128.0896
  134.9648  135.0000  145.5258  145.6984  151.1452  151.2108  153.2159  153.2281  158.6014  158.6964
  24  1  -22.9093  -22.5608  -21.9303  -21.9265  -21.5896  -21.5858  -19.5953  -19.5849  -19.2839  -19.2739
         -16.1533  -16.1451  -15.8469  -15.8381  -13.2360  -13.2336  -12.9712  -12.8326  -12.8301  -12.4856
  -11.3199  -11.3175  -10.9741  -10.9730  -10.8609  -10.8582  -10.7201  -10.7193  -10.1392  -10.0235
   -9.9862   -9.6481   -9.0716   -9.0695   -8.8074   -8.8049   -6.7924   -6.7846   -6.5320   -6.5253
   -2.5960   -2.1883   -1.5447   -1.5410   -1.2428   -1.2374   -1.0806   -1.0754   -0.6352   -0.6300
    3.3929    3.4511    3.4605    3.7106    3.7473    3.7539    4.9918    4.9918    5.7276    5.7276
    6.7682    7.0527    7.2342    7.2358    7.2873    7.2974    7.4063    7.6690    7.6706    7.7370
    7.7454    7.9456    7.9522    8.0382    8.2623    8.2691    9.0792    9.1398    9.1433    9.5000
    9.5602    9.5651   10.0783   10.0807   10.0899   10.1080   10.3948   10.4134   10.5277   10.5300
   12.8764   12.8983   12.8989   13.1202   13.3894   13.3900   13.5498   13.5616   13.9522   13.9656
   14.8176   15.2174   15.8159   16.0072   16.1893   16.1988   16.2566   16.2679   18.0249   18.0304
   18.5555   18.5628   19.0433   19.0503   19.1684   19.1768   20.1053   20.1057   20.3139   20.3179
   21.1929   21.2024   21.2046   21.6195   21.7056   21.9767   21.9788   22.4324   22.8924   22.8925
   23.4449   23.4535   23.6076   23.6078   23.6194   23.6196   24.3456   24.3545   24.3778   24.3835
   28.2331   28.4053   29.6175   29.6204   29.8540   29.8599   30.2968   30.2995   30.4201   30.4219
   31.5751   32.5756   33.1265   33.1297   33.1368   33.1392   33.4221   33.4317   33.4673   33.9417
   33.9575   34.2393   34.2452   34.7133   34.7156   34.9191   34.9239   35.0617   35.0714   35.2227
   37.8966   37.8989   38.3456   38.3519   38.4378   38.4494   38.5740   38.5853   40.9878   40.9925
   41.1245   41.1310   41.8323   42.4134   43.5466   43.5506   43.8556   43.8604   44.2318   44.7512
   45.5396   45.9276   47.4966   47.5085   48.6998   48.7099   54.1063   54.1382   56.2896   56.3088
   61.7549   61.7806   61.7992   61.8121   63.8488   68.1603   68.4857   68.9403   69.2365   69.2610
   69.5699   69.5816   72.5357   72.5571   72.7324   72.7531   73.7416   73.7520   75.3825   75.4105
   77.5179   77.5339   78.1486   78.1536   79.9644   80.1953   81.6952   82.4569   82.8196   82.8198
   83.4501   85.7013   85.7100   86.6858   98.2669   98.3872  101.2843  101.4198  101.5901  101.6286
  102.5876  102.6228  107.6079  109.4388  111.8737  111.9242  112.2774  112.3047  129.3172  129.3696
  133.4817  133.5203  147.2949  147.4415  150.8015  150.8287  153.5761  153.5836  156.8557  156.9429
  25  1  -22.7977  -22.6815  -21.8211  -21.8173  -21.7075  -21.7037  -19.4946  -19.4844  -19.3908  -19.3806
         -16.0559  -16.0475  -15.9537  -15.9451  -13.0983  -13.0960  -12.9639  -12.9616  -12.7887  -12.6255
  -11.1610  -11.1585  -11.0070  -11.0044  -10.8764  -10.8759  -10.7915  -10.7913  -10.1250  -10.0852
   -9.8765   -9.7638   -8.9961   -8.9939   -8.9073   -8.9050   -6.7075   -6.7001   -6.6206   -6.6136
   -2.4600   -2.3241   -1.4469   -1.4425   -1.3461   -1.3412   -0.9317   -0.9265   -0.7832   -0.7780
    3.4971    3.5309    3.5393    3.6037    3.6299    3.6374    5.2281    5.2281    5.4738    5.4738
    6.9915    7.2087    7.3134    7.3135    7.3446    7.3450    7.3832    7.6217    7.6248    7.6585
    7.6601    7.7132    8.0463    8.0529    8.1518    8.1586    9.1994    9.2826    9.2865    9.3437
    9.4234    9.4278   10.1835   10.2019   10.2287   10.2311   10.2850   10.3035   10.3801   10.3825
   12.9548   13.0354   13.0451   13.0452   13.2103   13.2109   13.6867   13.6992   13.8212   13.8341
   14.9433   15.0765   15.8819   15.9461   16.2195   16.2296   16.2419   16.2526   18.2328   18.2388
   18.4129   18.4195   19.0892   19.0966   19.1313   19.1392   20.2263   20.2269   20.2984   20.3005
   21.3827   21.4491   21.4513   21.5547   21.7082   21.7103   21.8784   22.1484   23.0250   23.0281
   23.2169   23.2229   23.6098   23.6101   23.6129   23.6132   24.3123   24.3204   24.3216   24.3286
   28.3047   28.3688   29.7150   29.7190   29.7928   29.7978   30.3425   30.3448   30.3840   30.3860
   31.9323   32.2662   33.1288   33.1321   33.1333   33.1363   33.6123   33.6238   33.7957   33.8096
   33.9695   34.3542   34.3577   34.5043   34.5045   34.5616   34.9246   34.9318   34.9701   34.9783
   38.0213   38.0249   38.1713   38.1762   38.4659   38.4772   38.5111   38.5224   41.0293   41.0344
   41.0752   41.0809   42.0213   42.2158   43.5987   43.6031   43.7017   43.7063   44.7468   44.9518
   45.2129   45.3126   47.9289   47.9403   48.3334   48.3442   54.9390   54.9689   55.6949   55.7207
   61.7421   61.7781   61.7805   61.8123   65.4312   67.1329   68.2251   68.3353   70.3700   70.3988
   70.5441   70.5498   71.5126   71.5352   71.5897   71.5999   74.3909   74.4044   74.9306   74.9496
   77.4816   77.4963   77.6961   77.7070   80.7195   81.2266   81.2987   82.0756   83.6624   83.6635
   83.9071   84.6155   84.6260   85.0482   99.1420   99.2715  100.1557  100.2914  101.8865  101.9220
  102.2255  102.2609  108.2043  108.8142  111.7900  111.8316  111.9361  111.9701  130.6590  130.7061
  132.0473  132.0899  148.9129  149.0112  150.1168  150.1479  154.2174  154.2343  155.3110  155.3686
siesta: Fermi energy =      -5.043220 eV

siesta: Program's energy decomposition (eV):
siesta: Ebs     =     -1077.728532
siesta: Eions   =      6322.689628
siesta: Ena     =      2076.476941
siesta: Ekin    =      2259.657964
siesta: Enl     =       -87.250934
siesta: Eso     =         0.000000
siesta: Edftu   =         0.000000
siesta: DEna    =       -90.346439
siesta: DUscf   =         5.662744
siesta: DUext   =         0.000000
siesta: Exc     =      -936.001456
siesta: eta*DQ  =         0.000000
siesta: Emadel  =         0.000000
siesta: Emeta   =         0.000000
siesta: Emolmec =         0.000000
siesta: Ekinion =         0.000000
siesta: Eharris =     -3094.490807
siesta: Etot    =     -3094.490809
siesta: FreeEng =     -3094.503958

siesta: Final energy (eV):
siesta:  Band Struct. =   -1077.728532
siesta:       Kinetic =    2259.657964
siesta:       Hartree =   21527.363260
siesta:       Edftu   =       0.000000
siesta:       Eso     =       0.000000
siesta:    Ext. field =       0.000000
siesta:   Exch.-corr. =    -936.001456
siesta:  Ion-electron =  -45168.417095
siesta:       Ion-ion =   19222.906519
siesta:       Ekinion =       0.000000
siesta:         Total =   -3094.490809
siesta:         Fermi =      -5.043220

siesta: Atomic forces (eV/Ang):
siesta:      1   -0.377673    0.000004    0.034049
siesta:      2   -0.299458   -0.251405    0.000815
siesta:      3   -0.299454   -0.251419   -0.000828
siesta:      4   -0.377680   -0.000003   -0.034050
siesta:      5   -0.150665   -0.341945    0.022145
siesta:      6    0.150668   -0.341931   -0.022129
siesta:      7    0.150665   -0.341929    0.022110
siesta:      8   -0.150660   -0.341922   -0.022131
siesta:      9    0.299436   -0.251400   -0.000797
siesta:     10    0.377679   -0.000024   -0.034049
siesta:     11    0.377669   -0.000012    0.034043
siesta:     12    0.299468   -0.251396    0.000826
siesta:     13    0.299458    0.251396   -0.000815
siesta:     14    0.150673    0.341936   -0.022144
siesta:     15    0.150660    0.341946    0.022123
siesta:     16    0.299463    0.251408    0.000819
siesta:     17   -0.150673    0.341947    0.022135
siesta:     18   -0.299461    0.251414    0.000821
siesta:     19   -0.299459    0.251403   -0.000825
siesta:     20   -0.150667    0.341922   -0.022109
siesta: ----------------------------------------
siesta:    Tot   -0.000008   -0.000010    0.000009

siesta: Stress tensor (static) (eV/Ang**3):
siesta:     0.003415   -0.000000    0.000000
siesta:    -0.000000    0.003469    0.000000
siesta:     0.000000    0.000000    0.003586

siesta: Cell volume =       2305.792638 Ang**3

siesta: Pressure (static):
siesta:                Solid            Molecule  Units
siesta:          -0.00003801         -0.00001318  Ry/Bohr**3
siesta:          -0.00348985         -0.00121014  eV/Ang**3
siesta:          -5.59141767         -1.93887852  kBar
(Free)E+ p_basis*V_orbitals  =       -3086.311190
(Free)Eharris+ p_basis*V_orbitals  =       -3086.311188

siesta: Electric dipole (a.u.)  =   -0.000000    0.000001    0.000000
siesta: Electric dipole (Debye) =   -0.000001    0.000002    0.000000

cite: Please see "nanotube-c-5-0.bib" for an exhaustive BiBTeX file.
cite: Please clearly indicate Siesta version in published work: v4.1-b4-351
cite: This calculation has made use of the following articles
cite: which are encouraged to be cited in a published work.
        Primary SIESTA paper
          DOI: www.doi.org/10.1088/0953-8984/14/11/302

>> End of run:  22-JAN-2021  23:16:07
Job completed
[1611353767.174429] [n-62-21-35:17675:0]          mpool.c:42   UCX  WARN  object 0x3f89700 was not returned to mpool ucp_requests
[1611353767.175163] [n-62-21-35:17679:0]          mpool.c:42   UCX  WARN  object 0x271fe40 was not returned to mpool ucp_requests
