Siesta Version  : v4.1-b4-351
Architecture    : x86_64-linux-n-62-26-19
Compiler version: GNU Fortran (GCC) 9.3.0
Compiler flags  : mpifort -m64 -fPIC -O3 -march=native -ftree-vectorize -fexpensive-optimizatioons -funroll-loops -fprefetch-loop-arrays -fno-second-underscore  -flto
PP flags        : -I/dtu/sw/dcc/SL73/2020-aug/generic/build-tools/1.0/include -I/dtu/sw/dcc/SL773/2020-aug/generic/gcc/9.3.0/include -I/dtu/sw/dcc/SL73/2020-aug/generic/gcc/9.3.0/include -I/dtu/sw/dcc/SL73/2020-aug/XeonE5-2660v3/gnu/9.3.0/zlib/1.2.11/include -I/dtu/sw/dcc/SL73/2020-aug/generic/numactl/2.0.12/include -I/dtu/sw/dcc/SL73/2020-aug/XeonE5-2660v3/gnu/9.3.0/libxml2/2.9.10/include -I/dtu/sw/dcc/SL73/2020-aug/XeonE5-2660v3/gnu/9.3.0/hwloc/2.2.0/include -I/dtu/sw/dcc/SL73/2020-aug/XeonE5-2660v3/gnu/9.3.0/knem/1.1.4/include -I/dtu/sw/dcc/SL73/2020-aug/XeonE5-2660v3/gnu/9.3.0/ucx/1.8.1/include -I/dtu/sw/dcc/SL73/2020-aug/XeonE5-2660v3/gnu/9.3.0/openmpi/4.0.4/include -I/dtu/sw/dcc/SL73/2020-aug/XeonE5-2660v3/gnu/9.3.0/szip/2.1.1/include -I/dtu/sw/dcc/SL73/2020-aug/XeonE5-2660v3/gnu/9.3.0/hdf5/1.12.0/include -I/dtu/sw/dcc/SL73/2020-aug/XeonE5-2660v3/gnu/9.3.0/pnetcdf/1.12.1/include -I/dtu/sw/dcc/SL73/2020-aug/generic/gen-zlib/1.2.11/include -I/dtu/sw/dcc/SL73/2020-aug/generic/openssl/1.1.1/include -I/dtu/sw/dcc/SL73/2020-aug/generic/libssh2/1.8.2/include -I/dtu/sw/dcc/SL73/2020-aug/generic/curl/7.65.1/include -I/dtu/sw/dcc/SL73/2020-aug/XeonE5-2660v3/gnu/9.3.0/netcdf/4.7.4/include -I/dtu/sw/dcc/SL73/2020-aug/XeonE5-2660v3/gnu/9.3.0/flook/0.8.1/include -I/dtu/sw/dcc/SL73/2020-aug/XeonE5-2660v3/gnu/9.3.0/fftw/3.3.8/include -I/dtu/sw/dcc/SL73/2020-aug/XeonE5-2660v3/gnu/9.3.0/parmetis/4.0.3/include -I/dtu/sw/dcc/SL73/2020-aug/XeonE5-2660v3/gnu/9.3.0/scalapack/2.1.0/include -I/dtu/sw/dcc/SL73/2020-aug/XeonE5-2660v3/gnu/9.3.0/lapack/3.9.0/include -I/dtu/sw/dcc/SL73/2020-aug/XeonE5-2660v3/gnu/9.3.0/blis/0.7.0/include -I/dtu/sw/dcc/SL73/2020-aug/XeonE5-2660v3/gnu/9.3.0/scotch/6.0.9/include -I/dtu/sw/dcc/SL73/2020-aug/XeonE5-2660v3/gnu/9.3.0/mumps/5.3.3/include -I/dtu/sw/dcc/SL73/2020-aug/XeonE5-2660v3/gnu/9.3.0/elpa/2020.05.001/include -DSIESTA__ELPA -DMPI -DFC_HAVE_FLUSH -DFC_HAVE_ABORT -DCDF -DCDF4 -DSIESTA__FLOOK  -DNCDF -DNCDF_4 -DNCDF_PARALLEL -DTS_NOCHECKS -DSIESTA__METIS -DSIESTA__MUMPS -DSIESTA__MRRR -I/dtu/sw/dcc/SL73/2020-aug/XeonE5-2660v3/gnu/9.3.0/elpa/2020.05.001/include/elpa
Libraries       : libncdf.a libfdict.a -lnetcdff -lnetcdf -lpnetcdf -lhdf5_hl -lhdf5 -lz  -lzmuumps -lmumps_common -lesmumps -lscotch -lscotcherr -lpord -lparmetis -lmetis -lelpa -lscalapack -llapack -lblis  -L/dtu/sw/dcc/SL73/2020-aug/XeonE5-2660v3/gnu/9.3.0/flook/0.8.1/lib -Wl,-rpath=/dtu/sw/dcc/SL73/2020-aug/XeonE5-2660v3/gnu/9.3.0/flook/0.8.1/lib -lflookall -ldl  -flto -fuse-linker-plugin  -lmetis
PARALLEL version
NetCDF support
NetCDF-4 support
NetCDF-4 MPI-IO support
METIS ordering support
Lua support

* Running on 8 nodes in parallel
>> Start of run:  22-JAN-2021  23:16:08

                           ***********************       
                           *  WELCOME TO SIESTA  *       
                           ***********************       

reinit: Reading from ../OMM_h2o.fdf

reinit: -----------------------------------------------------------------------
reinit: System Name: OMM_h2o
reinit: -----------------------------------------------------------------------
reinit: System Label: OMM_h2o
reinit: -----------------------------------------------------------------------

initatom: Reading input for the pseudopotentials and atomic orbitals ----------
Species number:   1 Atomic number:    8 Label: O
Species number:   2 Atomic number:    1 Label: H

Ground state valence configuration:   2s02  2p04
Reading pseudopotential information in formatted form from O.psf

Valence configuration for pseudopotential generation:
2s( 2.00) rc: 1.14
2p( 4.00) rc: 1.14
3d( 0.00) rc: 1.14
4f( 0.00) rc: 1.14
Ground state valence configuration:   1s01
Reading pseudopotential information in formatted form from H.psf

Valence configuration for pseudopotential generation:
1s( 1.00) rc: 1.25
2p( 0.00) rc: 1.25
3d( 0.00) rc: 1.25
4f( 0.00) rc: 1.25
remass: Read atomic mass for species    2 as      2.00000
For O, standard SIESTA heuristics set lmxkb to 3
 (one more than the basis l, including polarization orbitals).
Use PS.lmax or PS.KBprojectors blocks to override.
For H, standard SIESTA heuristics set lmxkb to 2
 (one more than the basis l, including polarization orbitals).
Use PS.lmax or PS.KBprojectors blocks to override.

<basis_specs>
===============================================================================
O                    Z=   8    Mass=  16.000        Charge=-0.24233    
Lmxo=2 Lmxkb= 3    BasisType=split      Semic=F
L=0  Nsemic=0  Cnfigmx=2
          i=1  nzeta=2  polorb=0  (2s)
            splnorm:   0.15000    
               vcte:    23.361    
               rinn:    3.3972    
               qcoe:    0.0000    
               qyuk:    0.0000    
               qwid:   0.10000E-01
                rcs:    4.5077      2.6407    
            lambdas:    1.0000      1.0000    
L=1  Nsemic=0  Cnfigmx=2
          i=1  nzeta=2  polorb=0  (2p)
            splnorm:   0.15000    
               vcte:    2.7833    
               rinn:    5.1425    
               qcoe:    0.0000    
               qyuk:    0.0000    
               qwid:   0.10000E-01
                rcs:    6.1500      2.5936    
            lambdas:    1.0000      1.0000    
L=2  Nsemic=0  Cnfigmx=3
          i=1  nzeta=1  polorb=0  (3d)
            splnorm:   0.15000    
               vcte:    63.982    
               rinn:   0.16104    
               qcoe:    0.0000    
               qyuk:    0.0000    
               qwid:   0.10000E-01
                rcs:    3.5440    
            lambdas:    1.0000    
-------------------------------------------------------------------------------
L=0  Nkbl=1  erefs: 0.17977+309
L=1  Nkbl=1  erefs: 0.17977+309
L=2  Nkbl=1  erefs: 0.17977+309
L=3  Nkbl=1  erefs: 0.17977+309
===============================================================================
</basis_specs>

atom: Called for O                     (Z =   8)

read_vps: Pseudopotential generation method:
read_vps: ATM3      Troullier-Martins                       
Valence charge for ps generation:    6.00000

xc_check: Exchange-correlation functional:
xc_check: GGA Perdew, Burke & Ernzerhof 1996
xc_check: WARNING: Pseudopotential generated with LDA CA functional
V l=0 = -2*Zval/r beyond r=  1.1278
V l=1 = -2*Zval/r beyond r=  1.1278
V l=2 = -2*Zval/r beyond r=  1.1278
V l=3 = -2*Zval/r beyond r=  1.1138
All V_l potentials equal beyond r=  1.1278
This should be close to max(r_c) in ps generation
All pots = -2*Zval/r beyond r=  1.1278

VLOCAL1: 99.0% of the norm of Vloc inside     34.126 Ry
VLOCAL1: 99.9% of the norm of Vloc inside     77.774 Ry
atom: Maximum radius for 4*pi*r*r*local-pseudopot. charge    1.37759
atom: Maximum radius for r*vlocal+2*Zval:    1.18566
GHOST: No ghost state for L =  0
GHOST: No ghost state for L =  1
GHOST: No ghost state for L =  2
GHOST: No ghost state for L =  3

KBgen: Kleinman-Bylander projectors: 
   l= 0   rc=  1.294105   el= -1.764717   Ekb=  9.120606   kbcos=  0.329038
   l= 1   rc=  1.294105   el= -0.698441   Ekb= -8.119783   kbcos= -0.400859
   l= 2   rc=  1.448233   el=  0.002031   Ekb= -2.039067   kbcos= -0.003490
   l= 3   rc=  1.561052   el=  0.003153   Ekb= -0.799361   kbcos= -0.000345

KBgen: Total number of  Kleinman-Bylander projectors:   16
atom: -------------------------------------------------------------------------

atom: SANKEY-TYPE ORBITALS:
atom: Selected multiple-zeta basis: split     

atom: basis set generated (by rescaling the valence charge)
atom: for an anion of charge  -0.2423

SPLIT: Orbitals with angular momentum L= 0

SPLIT: Basis orbitals for state 2s

   izeta = 1
                 lambda =    1.000000
                     rc =    4.574469
                 energy =   -1.761757
                kinetic =    1.493608
    potential(screened) =   -3.255365
       potential(ionic) =  -11.068524

   izeta = 2
                 rmatch =    2.639108
              splitnorm =    0.146386
                 energy =   -1.557532
                kinetic =    2.331275
    potential(screened) =   -3.888807
       potential(ionic) =  -12.342285

SPLIT: Orbitals with angular momentum L= 1

SPLIT: Basis orbitals for state 2p

   izeta = 1
                 lambda =    1.000000
                     rc =    6.174996
                 energy =   -0.692030
                kinetic =    4.435302
    potential(screened) =   -5.127332
       potential(ionic) =  -12.547375

   izeta = 2
                 rmatch =    2.639108
              splitnorm =    0.202025
                 energy =   -0.455967
                kinetic =    7.214573
    potential(screened) =   -7.670539
       potential(ionic) =  -16.265562

SPLIT: Orbitals with angular momentum L= 2

SPLIT: Basis orbitals for state 3d

   izeta = 1
                 lambda =    1.000000
                     rc =    3.562532
                 energy =    3.652279
                kinetic =    6.499560
    potential(screened) =   -2.847281
       potential(ionic) =  -10.016478
atom: Total number of Sankey-type orbitals: 13

atm_pop: Valence configuration (for local Pseudopot. screening):
 2s( 2.00)                                                            
 2p( 4.00)                                                            
 3d( 0.00)                                                            
Vna: chval, zval:    6.00000   6.00000

Vna:  Cut-off radius for the neutral-atom potential:   6.174996

atom: _________________________________________________________________________

<basis_specs>
===============================================================================
H                    Z=   1    Mass=  2.0000        Charge= 0.46527    
Lmxo=1 Lmxkb= 2    BasisType=split      Semic=F
L=0  Nsemic=0  Cnfigmx=1
          i=1  nzeta=2  polorb=0  (1s)
            splnorm:   0.15000    
               vcte:    99.931    
               rinn:    2.5993    
               qcoe:    0.0000    
               qyuk:    0.0000    
               qwid:   0.10000E-01
                rcs:    4.2036      1.8446    
            lambdas:    1.0000      1.0000    
L=1  Nsemic=0  Cnfigmx=2
          i=1  nzeta=1  polorb=0  (2p)
            splnorm:   0.15000    
               vcte:    24.565    
               rinn:    2.2023    
               qcoe:    0.0000    
               qyuk:    0.0000    
               qwid:   0.10000E-01
                rcs:    3.5282    
            lambdas:    1.0000    
-------------------------------------------------------------------------------
L=0  Nkbl=1  erefs: 0.17977+309
L=1  Nkbl=1  erefs: 0.17977+309
L=2  Nkbl=1  erefs: 0.17977+309
===============================================================================
</basis_specs>

atom: Called for H                     (Z =   1)

read_vps: Pseudopotential generation method:
read_vps: ATM3      Troullier-Martins                       
Valence charge for ps generation:    1.00000

xc_check: Exchange-correlation functional:
xc_check: GGA Perdew, Burke & Ernzerhof 1996
xc_check: WARNING: Pseudopotential generated with LDA CA functional
V l=0 = -2*Zval/r beyond r=  1.2343
V l=1 = -2*Zval/r beyond r=  1.2189
V l=2 = -2*Zval/r beyond r=  1.2189
All V_l potentials equal beyond r=  1.2343
This should be close to max(r_c) in ps generation
All pots = -2*Zval/r beyond r=  1.2343

VLOCAL1: 99.0% of the norm of Vloc inside     28.493 Ry
VLOCAL1: 99.9% of the norm of Vloc inside     64.935 Ry
atom: Maximum radius for 4*pi*r*r*local-pseudopot. charge    1.45251
atom: Maximum radius for r*vlocal+2*Zval:    1.21892
GHOST: No ghost state for L =  0
GHOST: No ghost state for L =  1
GHOST: No ghost state for L =  2

KBgen: Kleinman-Bylander projectors: 
   l= 0   rc=  1.364359   el= -0.488086   Ekb= -2.002077   kbcos= -0.347561
   l= 1   rc=  1.434438   el=  0.001075   Ekb= -0.501617   kbcos= -0.021754
   l= 2   rc=  1.470814   el=  0.002010   Ekb= -0.190607   kbcos= -0.002284

KBgen: Total number of  Kleinman-Bylander projectors:    9
atom: -------------------------------------------------------------------------

atom: SANKEY-TYPE ORBITALS:
atom: Selected multiple-zeta basis: split     

atom: basis set generated (by rescaling the valence charge)
atom: for a cation of charge   0.4653

SPLIT: Orbitals with angular momentum L= 0

SPLIT: Basis orbitals for state 1s

   izeta = 1
                 lambda =    1.000000
                     rc =    4.260636
                 energy =   -0.875320
                kinetic =    1.357215
    potential(screened) =   -2.232536
       potential(ionic) =   -2.287165

   izeta = 2
                 rmatch =    1.865767
              splitnorm =    0.576232
                 energy =    0.481660
                kinetic =    4.349015
    potential(screened) =   -3.867355
       potential(ionic) =   -3.832494

SPLIT: Orbitals with angular momentum L= 1

SPLIT: Basis orbitals for state 2p

   izeta = 1
                 lambda =    1.000000
                     rc =    3.576223
                 energy =    0.823141
                kinetic =    2.007026
    potential(screened) =   -1.183885
       potential(ionic) =   -1.299268
atom: Total number of Sankey-type orbitals:  5

atm_pop: Valence configuration (for local Pseudopot. screening):
 1s( 1.00)                                                            
 2p( 0.00)                                                            
Vna: chval, zval:    1.00000   1.00000

Vna:  Cut-off radius for the neutral-atom potential:   4.260636

atom: _________________________________________________________________________

prinput: Basis input ----------------------------------------------------------

PAO.BasisType split     

%block ChemicalSpeciesLabel
    1    8 O                       # Species index, atomic number, species label
    2    1 H                       # Species index, atomic number, species label
%endblock ChemicalSpeciesLabel

%block PAO.Basis                 # Define Basis set
O                     3  -0.242            # Label, l-shells, ionic net charge
 n=2   0   2                         # n, l, Nzeta 
   4.574      2.639   
   1.000      1.000   
 n=2   1   2                         # n, l, Nzeta 
   6.175      2.639   
   1.000      1.000   
 n=3   2   1                         # n, l, Nzeta 
   3.563   
   1.000   
H                     2   0.465            # Label, l-shells, ionic net charge
 n=1   0   2                         # n, l, Nzeta 
   4.261      1.866   
   1.000      1.000   
 n=2   1   1                         # n, l, Nzeta 
   3.576   
   1.000   
%endblock PAO.Basis

prinput: ----------------------------------------------------------------------

Dumping basis to NetCDF file O.ion.nc
Dumping basis to NetCDF file H.ion.nc
coor:   Atomic-coordinates input format  =     Cartesian coordinates
coor:                                            (in Bohr units)

siesta: Atomic coordinates (Bohr) and species
siesta:      0.27172   3.11964  -1.74949  1        1
siesta:     -1.36110   3.20498  -2.66996  2        2
siesta:      0.24672   3.92660  -0.07154  2        3
siesta:      8.31165 -11.96330 -11.05793  1        4
siesta:      6.93178 -13.13890 -11.50463  2        5
siesta:      7.71716 -10.95200  -9.61223  2        6
siesta:      7.63490  11.61107   5.41948  1        7
siesta:      6.61216  10.63020   4.22238  2        8
siesta:      8.50839  10.27510   6.29966  2        9
siesta:      1.08830   4.86617   8.06019  1       10
siesta:      1.62142   4.84585   9.85759  2       11
siesta:      2.48979   4.31620   7.00421  2       12
siesta:      9.51435  28.71279  30.54132  1       13
siesta:     10.74195  29.84845  29.79871  2       14
siesta:      9.60069  29.48890  32.18631  2       15
siesta:      2.76543 -11.53468  12.77778  1       16
siesta:      2.63268  -9.94060  13.75052  2       17
siesta:      2.04449 -12.79848  13.93663  2       18
siesta:      0.80810  10.68042  16.61947  1       19
siesta:     -0.79932  10.74460  15.78025  2       20
siesta:      1.18639  12.29620  17.44540  2       21
siesta:     12.61487   4.45579   2.85589  1       22
siesta:     14.15680   5.47145   3.09179  2       23
siesta:     11.36137   5.39241   3.81533  2       24
siesta:     13.44025   3.19269  13.35816  1       25
siesta:     12.73166   1.71789  12.54906  2       26
siesta:     13.28645   4.42044  12.01790  2       27
siesta:      8.06073  13.47252  17.49502  1       28
siesta:      6.95936  14.89948  17.11902  2       29
siesta:      7.89527  13.32184  19.34574  2       30
siesta:     13.85978   7.65443   9.86605  1       31
siesta:     14.75836   8.50638  11.21380  2       32
siesta:     15.16355   6.66099   9.02860  2       33
siesta:      1.44329  14.92395   1.75417  1       34
siesta:      1.55478  14.90515   3.59082  2       35
siesta:     -0.13604  15.84343   1.41984  2       36
siesta:     13.86096  -0.82218   1.24280  1       37
siesta:     13.86338   0.98139   1.68847  2       38
siesta:     13.08602  -1.62793   2.69208  2       39
siesta:      5.35372  36.09093   9.64186  1       40
siesta:      6.15491  34.92835  10.79884  2       41
siesta:      3.93581  36.48455  10.73456  2       42
siesta:     13.71511   8.31849  15.36149  1       43
siesta:     13.98847   6.96565  16.57186  2       44
siesta:     12.53119   7.59992  14.07373  2       45
siesta:     12.83867  15.55749  -3.81565  1       46
siesta:     14.57558  15.11623  -3.53023  2       47
siesta:     12.27397  15.98540  -2.11504  2       48
siesta:     17.46138   7.41207   3.14528  1       49
siesta:     17.33263   8.42208   1.59500  2       50
siesta:     18.96646   7.87878   4.09725  2       51
siesta:      5.50009  17.82279  16.49897  1       52
siesta:      5.86368  19.62625  16.26417  2       53
siesta:      3.70564  17.70906  16.82243  2       54
siesta:      5.19555   8.43056  19.80560  1       55
siesta:      3.88907   8.92584  18.55190  2       56
siesta:      6.66503   8.16690  18.71622  2       57
siesta:     16.67371  17.94974   9.09568  1       58
siesta:     15.01537  18.48098   8.54473  2       59
siesta:     17.81168  19.27939   8.46651  2       60
siesta:      7.73497   5.09320  15.22553  1       61
siesta:      7.50713   5.99213  13.62192  2       62
siesta:      9.51930   4.57678  14.98807  2       63
siesta:      4.53826  19.85943   4.12455  1       64
siesta:      4.50765  18.39783   5.22514  2       65
siesta:      4.80207  19.11425   2.47029  2       66
siesta:     11.12928   1.75134   8.60988  1       67
siesta:     10.21632   3.16921   7.86024  2       68
siesta:     10.84270   0.36700   7.38394  2       69
siesta:     12.73461  13.29511   6.41447  1       70
siesta:     13.60241  11.81134   7.01490  2       71
siesta:     11.28981  12.60974   5.54077  2       72
siesta:     17.50535  12.56281  10.44685  1       73
siesta:     17.32168  14.43317  10.47082  2       74
siesta:     17.73442  12.28509   8.64631  2       75

siesta: System type = bulk      

initatomlists: Number of atoms, orbitals, and projectors:     75   575   850

siesta: ******************** Simulation parameters ****************************
siesta:
siesta: The following are some of the parameters of the simulation.
siesta: A complete list of the parameters used, including default values,
siesta: can be found in file out.fdf
siesta:
redata: Spin configuration                          = none
redata: Number of spin components                   = 1
redata: Time-Reversal Symmetry                      = T
redata: Spin spiral                                 = F
redata: Long output                                 =   F
redata: Number of Atomic Species                    =        2
redata: Charge density info will appear in .RHO file
redata: Write Mulliken Pop.                         = NO
redata: Matel table size (NRTAB)                    =     1024
redata: Mesh Cutoff                                 =   150.0000 Ry
redata: Net charge of the system                    =     0.0000 |e|
redata: Min. number of SCF Iter                     =        0
redata: Max. number of SCF Iter                     =     1000
redata: SCF convergence failure will abort job
redata: SCF mix quantity                            = Hamiltonian
redata: Mix DM or H after convergence               =   F
redata: Recompute H after scf cycle                 =   F
redata: Mix DM in first SCF step                    =   T
redata: Write Pulay info on disk                    =   F
redata: New DM Occupancy tolerance                  = 0.000000000001
redata: No kicks to SCF
redata: DM Mixing Weight for Kicks                  =     0.5000
redata: Require Harris convergence for SCF          =   F
redata: Harris energy tolerance for SCF             =     0.000100 eV
redata: Require DM convergence for SCF              =   T
redata: DM tolerance for SCF                        =     0.000100
redata: Require EDM convergence for SCF             =   F
redata: EDM tolerance for SCF                       =     0.001000 eV
redata: Require H convergence for SCF               =   T
redata: Hamiltonian tolerance for SCF               =     0.001000 eV
redata: Require (free) Energy convergence for SCF   =   F
redata: (free) Energy tolerance for SCF             =     0.000100 eV
redata: Using Saved Data (generic)                  =   F
redata: Use continuation files for DM               =   F
redata: Neglect nonoverlap interactions             =   F
redata: Method of Calculation                       = Orbital Minimization Method
redata: Fix the spin of the system                  =   F
redata: Dynamics option                             = Verlet MD run
redata: Initial MD time step                        =        1
redata:   Final MD time step                        =        2
redata: Length of MD time step                      =     0.5000 fs
redata: Initial Temperature of MD run               =     0.0000 K
redata: Perform a MD quench                         =   F
mix.SCF: Pulay mixing                            = Pulay
mix.SCF:    Variant                              = stable
mix.SCF:    History steps                        = 3
mix.SCF:    Linear mixing weight                 =     0.300000
mix.SCF:    Mixing weight                        =     0.300000
mix.SCF:    SVD condition                        = 0.1000E-07
redata: Save all siesta data in one NC              =   F
redata: ***********************************************************************

%block SCF.Mixers
  Pulay
%endblock SCF.Mixers

%block SCF.Mixer.Pulay
  # Mixing method
  method pulay
  variant stable

  # Mixing options
  weight 0.3000
  weight.linear 0.3000
  history 3
%endblock SCF.Mixer.Pulay

Size of DM history Fstack: 1
Total number of electrons:   200.000000
Total ionic charge:   200.000000

* ProcessorY, Blocksize:    2  24


* Orbital distribution balance (max,min):    72    71

 Kpoints in:            1 . Kpoints trimmed:            1

siesta: k-grid: Number of k-points =     1
siesta: k-grid: Cutoff (effective) =     4.703 Ang
siesta: k-grid: Supercell and displacements
siesta: k-grid:    1   0   0      0.000
siesta: k-grid:    0   1   0      0.000
siesta: k-grid:    0   0   1      0.000

diag: Algorithm                                     = D&C
diag: Parallel over k                               =   F
diag: Use parallel 2D distribution                  =   T
diag: Parallel block-size                           = 24
diag: Parallel distribution                         =     2 x     4
diag: Used triangular part                          = Lower
diag: Absolute tolerance                            =  0.100E-15
diag: Orthogonalization factor                      =  0.100E-05
diag: Memory factor                                 =  1.0000


ts: **************************************************************
ts: Save H and S matrices                           =    F
ts: Save DM and EDM matrices                        =    F
ts: Only save the overlap matrix S                  =    F
ts: **************************************************************

************************ Begin: TS CHECKS AND WARNINGS ************************
************************ End: TS CHECKS AND WARNINGS **************************


                     ====================================
                        Begin MD step =      1
                     ====================================

outcell: Unit cell vectors (Ang):
        9.405075    0.000000    0.000000
        0.000000    9.405075    0.000000
        0.000000    0.000000    9.405075

outcell: Cell vector modules (Ang)   :    9.405075    9.405075    9.405075
outcell: Cell angles (23,13,12) (deg):     90.0000     90.0000     90.0000
outcell: Cell volume (Ang**3)        :    831.9300
Gamma-point calculation with multiply-connected orbital pairs
Folding of H and S implicitly performed
<dSpData1D:S at geom step 1
  <sparsity:sparsity for geom step 1
    nrows_g=575 nrows=72 sparsity=.0531 nnzs=17554, refcount: 7>
  <dData1D:(new from dSpData1D) n=17554, refcount: 1>
refcount: 1>
new_DM -- step:     1
Initializing Density Matrix...
DM filled with atomic data:
<dSpData2D:DM initialized from atoms
  <sparsity:sparsity for geom step 1
    nrows_g=575 nrows=72 sparsity=.0531 nnzs=17554, refcount: 8>
  <dData2D:DM n=17554 m=1, refcount: 1>
refcount: 1>
No. of atoms with KB's overlaping orbs in proc 0. Max # of overlaps:      69      96
New grid distribution:   1
           1       1:   36    1:   18    1:    9
           2       1:   36    1:   18   10:   18
           3       1:   36    1:   18   19:   27
           4       1:   36    1:   18   28:   36
           5       1:   36   19:   36    1:    9
           6       1:   36   19:   36   10:   18
           7       1:   36   19:   36   19:   27
           8       1:   36   19:   36   28:   36

InitMesh: MESH =    72 x    72 x    72 =      373248
InitMesh: (bp) =    36 x    36 x    36 =       46656
InitMesh: Mesh cutoff (required, used) =   150.000   161.973 Ry
ExtMesh (bp) on 0 =    88 x    70 x    61 =      375760
New grid distribution:   2
           1       1:   18   17:   36    1:   19
           2      18:   36    1:   16    1:   19
           3       1:   17    1:   16    1:   19
           4      21:   36    1:   15   20:   36
           5      19:   36   17:   36    1:   19
           6       1:   20    1:   15   20:   36
           7      23:   36   16:   36   20:   36
           8       1:   22   16:   36   20:   36
New grid distribution:   3
           1       1:   18   19:   36   19:   36
           2      19:   36    1:   18    1:   18
           3      19:   36    1:   18   19:   36
           4      19:   36   19:   36    1:   18
           5       1:   18    1:   18   19:   36
           6       1:   18    1:   18    1:   18
           7      19:   36   19:   36   19:   36
           8       1:   18   19:   36    1:   18
Setting up quadratic distribution...
ExtMesh (bp) on 0 =    70 x    72 x    71 =      357840
PhiOnMesh: Number of (b)points on node 0 =                 6840
PhiOnMesh: nlist on node 0 =               202498

stepf: Fermi-Dirac step function

siesta: Program's energy decomposition (eV):
siesta: Ebs     =     -1386.284344
siesta: Eions   =     20396.361970
siesta: Ena     =      4788.977978
siesta: Ekin    =     10534.033422
siesta: Enl     =     -2018.931061
siesta: Eso     =         0.000000
siesta: Edftu   =         0.000000
siesta: DEna    =     -1645.950175
siesta: DUscf   =       312.373037
siesta: DUext   =         0.000000
siesta: Exc     =     -3170.973665
siesta: eta*DQ  =         0.000000
siesta: Emadel  =         0.000000
siesta: Emeta   =         0.000000
siesta: Emolmec =         0.000000
siesta: Ekinion =         0.000000
siesta: Eharris =    -11358.873735
siesta: Etot    =    -11596.832434
siesta: FreeEng =    -11596.832434

siesta: iscf =    1
Eharris(eV) =     -11358.8737  E_KS(eV) =     -11596.8324  dDmax =   0.953436

timer: Routine,Calls,Time,% = IterSCF        1       0.546  16.47

siesta: iscf =    2
Eharris(eV) =     -11823.7434  E_KS(eV) =     -11735.3733  dDmax =   0.521214

+---------------------------------------------+
| OMM (sparse algebra+preconditioning)        |
+---------------------------------------------+
|             E_OMM            E_diff         |
|     1     1 -1.1155252E+002  1.0710882E-003 |
|     1     2 -1.1157304E+002  1.8391648E-004 |
|     1     3 -1.1157969E+002  5.9666517E-005 |
|     1     4 -1.1158140E+002  1.5304785E-005 |
|     1     5 -1.1158171E+002  2.7175151E-006 |
|     1     6 -1.1158181E+002  9.3648034E-007 |
|     1     7 -1.1158185E+002  3.8471870E-007 |
|     1     8 -1.1158186E+002  9.6203422E-008 |
|     1     9 -1.1158187E+002  2.9743452E-008 |
|     1    10 -1.1158187E+002  9.0254479E-009 |
|     1    11 -1.1158187E+002  4.0747811E-009 |
|     1    12 -1.1158187E+002  1.2993644E-009 |
|     1    13 -1.1158187E+002  3.8206411E-010 |
+---------------------------------------------+
| minim: icg             =    13              |
| minim: 2*Tr[(2*I-S)*S] =   200.0000000      |
+---------------------------------------------+

siesta: iscf =    3
Eharris(eV) =     -11748.5177  E_KS(eV) =     -11745.2235  dDmax =   0.206142

+---------------------------------------------+
| OMM (sparse algebra+preconditioning)        |
+---------------------------------------------+
|             E_OMM            E_diff         |
|     1     1 -1.1261609E+002  2.3263083E-005 |
|     1     2 -1.1261653E+002  3.8572802E-006 |
|     1     3 -1.1261666E+002  1.1887157E-006 |
|     1     4 -1.1261670E+002  3.6361455E-007 |
|     1     5 -1.1261671E+002  9.0976908E-008 |
|     1     6 -1.1261672E+002  2.0915845E-008 |
|     1     7 -1.1261672E+002  6.8060243E-009 |
|     1     8 -1.1261672E+002  2.7207933E-009 |
|     1     9 -1.1261672E+002  6.3679419E-010 |
+---------------------------------------------+
| minim: icg             =     9              |
| minim: 2*Tr[(2*I-S)*S] =   200.0000000      |
+---------------------------------------------+

siesta: iscf =    4
Eharris(eV) =     -11745.2725  E_KS(eV) =     -11745.2931  dDmax =   0.044534

+---------------------------------------------+
| OMM (sparse algebra+preconditioning)        |
+---------------------------------------------+
|             E_OMM            E_diff         |
|     1     1 -1.1218113E+002  4.8084704E-006 |
|     1     2 -1.1218125E+002  1.0768624E-006 |
|     1     3 -1.1218127E+002  1.8814052E-007 |
|     1     4 -1.1218128E+002  7.5280500E-008 |
|     1     5 -1.1218128E+002  1.7677855E-008 |
|     1     6 -1.1218128E+002  5.0900668E-009 |
|     1     7 -1.1218128E+002  2.1396100E-009 |
|     1     8 -1.1218128E+002  7.9446370E-010 |
+---------------------------------------------+
| minim: icg             =     8              |
| minim: 2*Tr[(2*I-S)*S] =   200.0000000      |
+---------------------------------------------+

siesta: iscf =    5
Eharris(eV) =     -11745.3572  E_KS(eV) =     -11745.3390  dDmax =   0.012232

+---------------------------------------------+
| OMM (sparse algebra+preconditioning)        |
+---------------------------------------------+
|             E_OMM            E_diff         |
|     1     1 -1.1217598E+002  6.9674618E-008 |
|     1     2 -1.1217598E+002  6.7799478E-009 |
|     1     3 -1.1217598E+002  1.9627967E-009 |
|     1     4 -1.1217598E+002  9.0279659E-010 |
+---------------------------------------------+
| minim: icg             =     4              |
| minim: 2*Tr[(2*I-S)*S] =   200.0000000      |
+---------------------------------------------+

siesta: iscf =    6
Eharris(eV) =     -11745.3408  E_KS(eV) =     -11745.3399  dDmax =   0.003344

+---------------------------------------------+
| OMM (sparse algebra+preconditioning)        |
+---------------------------------------------+
|             E_OMM            E_diff         |
|     1     1 -1.1215683E+002  6.8162707E-008 |
|     1     2 -1.1215683E+002  6.5286461E-009 |
|     1     3 -1.1215683E+002  1.8469716E-009 |
|     1     4 -1.1215683E+002  1.0176395E-009 |
|     1     5 -1.1215683E+002  3.2080657E-010 |
+---------------------------------------------+
| minim: icg             =     5              |
| minim: 2*Tr[(2*I-S)*S] =   200.0000000      |
+---------------------------------------------+

siesta: iscf =    7
Eharris(eV) =     -11745.3407  E_KS(eV) =     -11745.3403  dDmax =   0.003215

+---------------------------------------------+
| OMM (sparse algebra+preconditioning)        |
+---------------------------------------------+
|             E_OMM            E_diff         |
|     1     1 -1.1214158E+002  7.7714431E-009 |
|     1     2 -1.1214158E+002  9.4804126E-010 |
+---------------------------------------------+
| minim: icg             =     2              |
| minim: 2*Tr[(2*I-S)*S] =   200.0000000      |
+---------------------------------------------+

siesta: iscf =    8
Eharris(eV) =     -11745.3404  E_KS(eV) =     -11745.3404  dDmax =   0.000819

+---------------------------------------------+
| OMM (sparse algebra)                        |
+---------------------------------------------+
|             E_OMM            E_diff         |
|     1     1 -1.1213776E+002  2.6568202E-010 |
+---------------------------------------------+
| minim: icg             =     1              |
| minim: 2*Tr[(2*I-S)*S] =   200.0000000      |
+---------------------------------------------+

siesta: iscf =    9
Eharris(eV) =     -11745.3404  E_KS(eV) =     -11745.3404  dDmax =   0.000018

+---------------------------------------------+
| OMM (sparse algebra)                        |
+---------------------------------------------+
|             E_OMM            E_diff         |
|     1     1 -1.1213605E+002  3.9111655E-010 |
+---------------------------------------------+
| minim: icg             =     1              |
| minim: 2*Tr[(2*I-S)*S] =   200.0000000      |
+---------------------------------------------+

siesta: iscf =   10
Eharris(eV) =     -11745.3404  E_KS(eV) =     -11745.3404  dDmax =   0.000015


SCF Convergence by DM+H criterion
max |DM_out - DM_in|         :     0.0000154236
max |H_out - H_in|      (eV) :     0.0003710892
SCF cycle converged after 10 iterations

Using DM_out to compute the final energy and forces
No. of atoms with KB's overlaping orbs in proc 0. Max # of overlaps:      69      96

siesta: E_KS(eV) =           -11745.3404

siesta: E_KS - E_eggbox =    -11745.3404

siesta: Atomic forces (eV/Ang):
----------------------------------------
   Tot    0.170656    0.178727   -0.070004
----------------------------------------
   Max    1.215661
   Res    0.406430    sqrt( Sum f_i^2 / 3N )
----------------------------------------
   Max    1.215661    constrained

Stress tensor Voigt[x,y,z,yz,xz,xy] (kbar):        6.12       10.20       15.85        6.61        1.27        1.36
(Free)E + p*V (eV/cell)   -11750.9076
Target enthalpy (eV/cell)   -11745.3404

siesta: Stress tensor (static) (eV/Ang**3):
         0.003817    0.000848    0.000793
         0.000849    0.006367    0.004128
         0.000793    0.004128    0.009892

siesta: Pressure (static):        -10.72185427  kBar

siesta: Stress tensor (total) (eV/Ang**3):
         0.003817    0.000848    0.000793
         0.000849    0.006367    0.004128
         0.000793    0.004128    0.009892

siesta: Pressure (total):        -10.72185427  kBar

siesta: Temp_ion =       0.000 K

                     ====================================
                        Begin MD step =      2
                     ====================================

outcell: Unit cell vectors (Ang):
        9.405075    0.000000    0.000000
        0.000000    9.405075    0.000000
        0.000000    0.000000    9.405075

outcell: Cell vector modules (Ang)   :    9.405075    9.405075    9.405075
outcell: Cell angles (23,13,12) (deg):     90.0000     90.0000     90.0000
outcell: Cell volume (Ang**3)        :    831.9300
Gamma-point calculation with multiply-connected orbital pairs
Folding of H and S implicitly performed
<dSpData1D:S at geom step 2
  <sparsity:sparsity for geom step 2
    nrows_g=575 nrows=72 sparsity=.0531 nnzs=17557, refcount: 7>
  <dData1D:(new from dSpData1D) n=17557, refcount: 1>
refcount: 1>
new_DM -- step:     2
Re-using DM from previous geometries...
Number of DMs in history: 1
 DM extrapolation coefficients: 
1   1.00000
New DM after history re-use:
<dSpData2D:SpM extrapolated using coords
  <sparsity:sparsity for geom step 2
    nrows_g=575 nrows=72 sparsity=.0531 nnzs=17557, refcount: 9>
  <dData2D:(temp array for extrapolation) n=17557 m=1, refcount: 1>
refcount: 1>
No. of atoms with KB's overlaping orbs in proc 0. Max # of overlaps:      69      96
New grid distribution:   1
           1       1:   36    1:   18    1:    9
           2       1:   36    1:   18   10:   18
           3       1:   36    1:   18   19:   27
           4       1:   36    1:   18   28:   36
           5       1:   36   19:   36    1:    9
           6       1:   36   19:   36   10:   18
           7       1:   36   19:   36   19:   27
           8       1:   36   19:   36   28:   36

InitMesh: MESH =    72 x    72 x    72 =      373248
InitMesh: (bp) =    36 x    36 x    36 =       46656
InitMesh: Mesh cutoff (required, used) =   150.000   161.973 Ry
ExtMesh (bp) on 0 =    88 x    70 x    61 =      375760
New grid distribution:   2
           1       1:   18   17:   36    1:   19
           2      18:   36    1:   16    1:   19
           3       1:   17    1:   16    1:   19
           4      21:   36    1:   15   20:   36
           5      19:   36   17:   36    1:   19
           6       1:   20    1:   15   20:   36
           7      23:   36   16:   36   20:   36
           8       1:   22   16:   36   20:   36
New grid distribution:   3
           1       1:   18   19:   36   19:   36
           2      19:   36    1:   18    1:   18
           3      19:   36    1:   18   19:   36
           4      19:   36   19:   36    1:   18
           5       1:   18    1:   18   19:   36
           6       1:   18    1:   18    1:   18
           7      19:   36   19:   36   19:   36
           8       1:   18   19:   36    1:   18
Setting up quadratic distribution...
ExtMesh (bp) on 0 =    70 x    72 x    71 =      357840
PhiOnMesh: Number of (b)points on node 0 =                 6840
PhiOnMesh: nlist on node 0 =               202494

siesta: iscf =    1
Eharris(eV) =     -11745.3355  E_KS(eV) =     -11745.3538  dDmax =   0.006729

+---------------------------------------------+
| OMM (sparse algebra+preconditioning)        |
+---------------------------------------------+
|             E_OMM            E_diff         |
|     1     1 -1.1213115E+002  1.1149903E-008 |
|     1     2 -1.1213115E+002  2.1781038E-009 |
|     1     3 -1.1213115E+002  6.2166395E-010 |
+---------------------------------------------+
| minim: icg             =     3              |
| minim: 2*Tr[(2*I-S)*S] =   200.0000000      |
+---------------------------------------------+

siesta: iscf =    2
Eharris(eV) =     -11745.3538  E_KS(eV) =     -11745.3538  dDmax =   0.001421

+---------------------------------------------+
| OMM (sparse algebra+preconditioning)        |
+---------------------------------------------+
|             E_OMM            E_diff         |
|     1     1 -1.1213960E+002  3.5918066E-009 |
|     1     2 -1.1213960E+002  5.8180212E-010 |
+---------------------------------------------+
| minim: icg             =     2              |
| minim: 2*Tr[(2*I-S)*S] =   200.0000000      |
+---------------------------------------------+

siesta: iscf =    3
Eharris(eV) =     -11745.3539  E_KS(eV) =     -11745.3539  dDmax =   0.000787

+---------------------------------------------+
| OMM (sparse algebra+preconditioning)        |
+---------------------------------------------+
|             E_OMM            E_diff         |
|     1     1 -1.1214185E+002  5.1470260E-010 |
+---------------------------------------------+
| minim: icg             =     1              |
| minim: 2*Tr[(2*I-S)*S] =   200.0000000      |
+---------------------------------------------+

siesta: iscf =    4
Eharris(eV) =     -11745.3539  E_KS(eV) =     -11745.3539  dDmax =   0.000097

+---------------------------------------------+
| OMM (sparse algebra)                        |
+---------------------------------------------+
|             E_OMM            E_diff         |
|     1     1 -1.1214111E+002  1.3471843E-010 |
+---------------------------------------------+
| minim: icg             =     1              |
| minim: 2*Tr[(2*I-S)*S] =   200.0000000      |
+---------------------------------------------+

siesta: iscf =    5
Eharris(eV) =     -11745.3539  E_KS(eV) =     -11745.3539  dDmax =   0.000020

+---------------------------------------------+
| OMM (sparse algebra)                        |
+---------------------------------------------+
|             E_OMM            E_diff         |
|     1     1 -1.1214004E+002  1.9781772E-011 |
+---------------------------------------------+
| minim: icg             =     1              |
| minim: 2*Tr[(2*I-S)*S] =   200.0000000      |
+---------------------------------------------+

siesta: iscf =    6
Eharris(eV) =     -11745.3539  E_KS(eV) =     -11745.3539  dDmax =   0.000009


SCF Convergence by DM+H criterion
max |DM_out - DM_in|         :     0.0000086897
max |H_out - H_in|      (eV) :     0.0001574011
SCF cycle converged after 6 iterations

Using DM_out to compute the final energy and forces
No. of atoms with KB's overlaping orbs in proc 0. Max # of overlaps:      69      96

siesta: E_KS(eV) =           -11745.3539

siesta: Atomic forces (eV/Ang):
----------------------------------------
   Tot    0.170711    0.179384   -0.069411
----------------------------------------
   Max    1.197307
   Res    0.398867    sqrt( Sum f_i^2 / 3N )
----------------------------------------
   Max    1.197307    constrained

Stress tensor Voigt[x,y,z,yz,xz,xy] (kbar):        6.09       10.11       15.63        6.50        1.26        1.32
(Free)E + p*V (eV/cell)   -11750.8635
Target enthalpy (eV/cell)   -11745.3539

siesta: Stress tensor (static) (eV/Ang**3):
         0.003802    0.000826    0.000788
         0.000826    0.006309    0.004059
         0.000788    0.004060    0.009757

siesta: Pressure (static):        -10.61089033  kBar

siesta: Stress tensor (total) (eV/Ang**3):
         0.003802    0.000826    0.000788
         0.000826    0.006309    0.004059
         0.000788    0.004060    0.009757

siesta: Pressure (total):        -10.61089033  kBar

siesta: Temp_ion =       1.396 K

siesta: Program's energy decomposition (eV):
siesta: Ebs     =     -2851.515266
siesta: Eions   =     20396.361970
siesta: Ena     =      4788.977822
siesta: Ekin    =      8837.073417
siesta: Enl     =     -1599.577760
siesta: Eso     =         0.000000
siesta: Edftu   =         0.000000
siesta: DEna    =      -547.663469
siesta: DUscf   =        58.712236
siesta: DUext   =         0.000000
siesta: Exc     =     -2886.514134
siesta: eta*DQ  =         0.000000
siesta: Emadel  =         0.000000
siesta: Emeta   =         0.000000
siesta: Emolmec =         0.000000
siesta: Ekinion =         0.013357
siesta: Eharris =    -11745.340502
siesta: Etot    =    -11745.340502
siesta: FreeEng =    -11745.340502

siesta: Final energy (eV):
siesta:  Band Struct. =   -2851.515266
siesta:       Kinetic =    8837.073417
siesta:       Hartree =    5978.058576
siesta:       Edftu   =       0.000000
siesta:       Eso     =       0.000000
siesta:    Ext. field =       0.000000
siesta:   Exch.-corr. =   -2886.514134
siesta:  Ion-electron =  -19899.901123
siesta:       Ion-ion =   -3774.070595
siesta:       Ekinion =       0.013357
siesta:         Total =  -11745.340502
siesta:         Fermi =      -2.828528

siesta: Atomic forces (eV/Ang):
siesta:      1    0.396154   -0.123221    0.419919
siesta:      2   -0.102649   -0.012388    0.517504
siesta:      3   -0.467748   -0.161782   -0.824528
siesta:      4   -0.444705    0.097443    0.370248
siesta:      5    0.240177    0.478579   -0.066368
siesta:      6    0.162531   -0.669273   -0.541640
siesta:      7    0.070732    0.036075   -0.220899
siesta:      8   -0.211846   -0.087676   -0.167585
siesta:      9   -0.005546   -0.018893    0.237244
siesta:     10   -0.073165   -0.340598    0.230158
siesta:     11    0.329786    0.716458   -0.603228
siesta:     12   -0.097771    0.100429    0.130606
siesta:     13    0.431205    0.127156   -0.289845
siesta:     14    0.120669   -0.093875   -0.704862
siesta:     15   -0.685505   -0.185167    0.955999
siesta:     16    0.055645    0.594682    0.457121
siesta:     17   -0.073051   -0.578323   -0.701670
siesta:     18    0.007029    0.065883    0.280089
siesta:     19    0.712518   -0.604984    0.346470
siesta:     20   -0.475102    0.105500   -0.289072
siesta:     21   -0.300145    0.001201   -0.011630
siesta:     22    0.645558    0.558690   -0.142770
siesta:     23   -0.146482   -0.280493    0.179628
siesta:     24   -0.142792   -0.256600    0.022741
siesta:     25   -0.220188    0.396569    0.353305
siesta:     26    0.054344   -0.829816    0.113825
siesta:     27    0.251989    0.527688   -0.386582
siesta:     28   -0.011415   -0.206151    1.180407
siesta:     29    0.149860    0.202799   -0.272915
siesta:     30    0.296544   -0.117165   -0.795541
siesta:     31    0.171634   -0.396267   -0.144280
siesta:     32    0.159548    0.298912   -0.046382
siesta:     33    0.061515    0.131209   -0.117993
siesta:     34   -0.160629    0.448460    0.232137
siesta:     35   -0.033828   -0.100958   -0.410857
siesta:     36   -0.143059   -0.079549    0.124120
siesta:     37    0.420980    0.343346    0.335454
siesta:     38   -0.334936   -0.273337   -0.098672
siesta:     39    0.073042   -0.170838    0.086135
siesta:     40   -0.616962   -0.125080    0.647196
siesta:     41    0.758671   -0.286575   -0.329139
siesta:     42   -0.266261    0.352516   -0.375618
siesta:     43   -0.382757   -0.397233   -0.607089
siesta:     44   -0.276891    0.008572   -0.258836
siesta:     45    0.645605    0.810306    1.142352
siesta:     46   -0.318005    0.019021   -0.082689
siesta:     47    0.203422   -0.028739   -0.164533
siesta:     48    0.016693   -0.057614    0.004117
siesta:     49   -0.652827   -0.306585   -0.221820
siesta:     50    0.726975    0.328820    0.429493
siesta:     51   -0.329380   -0.101101   -0.485636
siesta:     52   -0.187206    0.557239    0.261272
siesta:     53    0.209820   -0.104645   -0.340384
siesta:     54   -0.239431   -0.013626   -0.183288
siesta:     55   -0.318369    0.422539   -0.955020
siesta:     56    0.527819   -0.106985    0.616477
siesta:     57   -0.209081   -0.199474    0.148305
siesta:     58    0.696832   -0.238923   -0.156453
siesta:     59   -0.342434    0.065519    0.111474
siesta:     60   -0.548396   -0.062318    0.142862
siesta:     61    1.197307    0.032034   -0.732413
siesta:     62   -0.641489   -0.089881    0.543295
siesta:     63   -0.581784   -0.141007    0.540799
siesta:     64   -0.044507   -0.131195    0.462357
siesta:     65    0.135950    0.084837    0.324677
siesta:     66    0.188098    0.149452   -0.244586
siesta:     67    0.197579   -1.024822   -1.027289
siesta:     68    0.023604    0.241274    0.131852
siesta:     69    0.161569    0.588413    0.921423
siesta:     70    0.190349    0.254771   -0.283766
siesta:     71    0.169562   -0.102972    0.319122
siesta:     72   -0.502208    0.050321   -0.119190
siesta:     73   -0.052074    0.866270   -0.319268
siesta:     74   -0.072164   -0.633147   -0.089198
siesta:     75    0.022185   -0.144321    0.423938
siesta: ----------------------------------------
siesta:    Tot    0.170711    0.179384   -0.069411

siesta: Stress tensor (static) (eV/Ang**3):
siesta:     0.003802    0.000826    0.000788
siesta:     0.000826    0.006309    0.004059
siesta:     0.000788    0.004060    0.009757

siesta: Cell volume =        831.929999 Ang**3

siesta: Pressure (static):
siesta:                Solid            Molecule  Units
siesta:          -0.00007213         -0.00006325  Ry/Bohr**3
siesta:          -0.00662273         -0.00580703  eV/Ang**3
siesta:         -10.61089033         -9.30398433  kBar
(Free)E+ p_basis*V_orbitals  =      -11732.330732
(Free)Eharris+ p_basis*V_orbitals  =      -11732.330732

cite: Please see "OMM_h2o.bib" for an exhaustive BiBTeX file.
cite: Please clearly indicate Siesta version in published work: v4.1-b4-351
cite: This calculation has made use of the following articles
cite: which are encouraged to be cited in a published work.
        Primary SIESTA paper
          DOI: www.doi.org/10.1088/0953-8984/14/11/302

>> End of run:  22-JAN-2021  23:16:19
Job completed
