Siesta Version: siesta-3.2
Architecture  : SIESTA_ARCH
Compiler flags: FFLAGS
PARALLEL version
NetCDF support

* Running on    4 nodes in parallel
>> Start of run:  24-MAR-2013  18:30:04

                           ***********************       
                           *  WELCOME TO SIESTA  *       
                           ***********************       

reinit: Reading from standard input
************************** Dump of input data file ****************************
SystemName      bulk Lead -- filtering by cutoff
SystemLabel     pb_filter_cutoff
NumberOfSpecies      1
NumberOfAtoms	     1
%block ChemicalSpeciesLabel
    1    82    Pb
%endblock ChemicalSpeciesLabel
%block PS.lmax
   Pb   3
%endblock PS.lmax
FilterCutoff 150.0 Ry
MeshCutoff   200.0 Ry
LatticeConstant      4.89 Ang
%block LatticeVectors
   0.50    0.50    0.00
   0.50    0.00    0.50
   0.00    0.50    0.50
%endblock LatticeVectors
AtomicCoordinatesFormat	     ScaledCartesian
%block AtomicCoordinatesAndAtomicSpecies
        0.000000        0.000000        0.000000        1
%endblock AtomicCoordinatesAndAtomicSpecies
%block kgrid_Monkhorst_Pack
   7   0    0    0.5
   0   7    0    0.5
   0    0   7    0.5
%endblock kgrid_Monkhorst_Pack
DM.NumberPulay         3
DM.MixingWeight        0.05
WriteDM F
%Block PAO.Basis
Pb   3     -0.30296
 n=6   0   2   E     3.76509     2.94865
     5.41509     4.89944
     1.00000     1.00000
 n=6   1   2   E     2.50435     0.86601
     6.12615     5.62330
     1.00000     1.00000
 n=6   2   1   E   135.64896     4.82387
     5.14075
     1.00000
%EndBlock PAO.Basis
************************** End of input data file *****************************

reinit: -----------------------------------------------------------------------
reinit: System Name: bulk Lead -- filtering by cutoff
reinit: -----------------------------------------------------------------------
reinit: System Label: pb_filter_cutoff                                            
reinit: -----------------------------------------------------------------------

initatom: Reading input for the pseudopotentials and atomic orbitals ----------
 Species number:            1  Label: Pb Atomic number:          82
Ground state valence configuration:   6s02  6p02
Reading pseudopotential information in formatted form from Pb.psf

Pseudopotential generated from a relativistic atomic calculation
There are spin-orbit pseudopotentials available
Spin-orbit interaction is not included in this calculation

Valence configuration for pseudopotential generation:
6s( 2.00) rc: 2.18
6p( 2.00) rc: 2.87
6d( 0.00) rc: 2.98
5f( 0.00) rc: 2.87
relmxkb: Read Max KB Ang. Momentum=    3 for species Pb

<basis_specs>
===============================================================================
Pb                   Z=  82    Mass=  207.20        Charge=-0.30296    
Lmxo=2 Lmxkb= 3    BasisType=split      Semic=F
L=0  Nsemic=0  Cnfigmx=6
          n=1  nzeta=2  polorb=0
            splnorm:   0.15000    
               vcte:    3.7651    
               rinn:    2.9487    
                rcs:    5.4151      4.8994    
            lambdas:    1.0000      1.0000    
L=1  Nsemic=0  Cnfigmx=6
          n=1  nzeta=2  polorb=0
            splnorm:   0.15000    
               vcte:    2.5044    
               rinn:   0.86601    
                rcs:    6.1261      5.6233    
            lambdas:    1.0000      1.0000    
L=2  Nsemic=0  Cnfigmx=6
          n=1  nzeta=1  polorb=0
            splnorm:   0.15000    
               vcte:    135.65    
               rinn:    4.8239    
                rcs:    5.1407    
            lambdas:    1.0000    
-------------------------------------------------------------------------------
L=0  Nkbl=1  erefs: 0.17977+309
L=1  Nkbl=1  erefs: 0.17977+309
L=2  Nkbl=1  erefs: 0.17977+309
L=3  Nkbl=1  erefs: 0.17977+309
===============================================================================
</basis_specs>

Filter: Requested cutoff:  150.000000 Ry
atom: Called for Pb                    (Z =  82)

read_vps: Pseudopotential generation method:
read_vps: ATM3      Troullier-Martins                       
Total valence charge:    4.00000

read_vps: Pseudopotential includes a core correction:
read_vps: Pseudo-core for xc-correction

xc_check: Exchange-correlation functional:
xc_check: Ceperley-Alder
V l=0 = -2*Zval/r beyond r=  4.3417
V l=1 = -2*Zval/r beyond r=  4.3417
V l=2 = -2*Zval/r beyond r=  4.3417
V l=3 = -2*Zval/r beyond r=  4.3417
All V_l potentials equal beyond r=  2.9469
This should be close to max(r_c) in ps generation
All pots = -2*Zval/r beyond r=  4.3417
Using large-core scheme for Vlocal

atom: Estimated core radius    4.34173
atom: Maximum radius for 4*pi*r*r*local-pseudopot. charge    4.73875
atom: Maximum radius for r*vlocal+2*Zval:    4.39635
GHOST: No ghost state for L =  0
GHOST: No ghost state for L =  1
GHOST: No ghost state for L =  2
GHOST: No ghost state for L =  3

KBgen: Kleinman-Bylander projectors: 
   l= 0   rc=  3.021552   el= -0.897425   Ekb=  7.460315   kbcos=  0.182446
   l= 1   rc=  3.059559   el= -0.274092   Ekb=  2.458119   kbcos=  0.255536
   l= 2   rc=  3.059559   el=  0.002395   Ekb=  3.554855   kbcos=  0.076826
   l= 3   rc=  3.059559   el=  0.003524   Ekb= -1.662449   kbcos= -0.034384

KBgen: Total number of  Kleinman-Bylander projectors:   16
atom: -------------------------------------------------------------------------

atom: SANKEY-TYPE ORBITALS:
atom: Selected multiple-zeta basis: split     

atom: basis set generated (by rescaling the valence charge)
atom: for an anion of charge  -0.3030

SPLIT: Orbitals with angular momentum L= 0

SPLIT: Basis orbitals for state 6s

   izeta = 1
                 lambda =    1.000000
                     rc =    5.437260
                 energy =   -0.885135
                kinetic =    0.601459
    potential(screened) =   -1.486593
       potential(ionic) =   -3.374130
PAO Filter: Cutoff used:   73.50 Ry
PAO Filter: diagnostic kin energy tol:    0.003000 Ry
PAO Filter: Nominal cutoff (before filtering):   22.43 Ry
Filter:    Number of eigenfunctions  of the
           filtering kernel (total, used)= 40 13

   izeta = 2
                 rmatch =    4.919833
              splitnorm =    0.064481
                 energy =   -0.835832
                kinetic =    0.802803
    potential(screened) =   -1.638636
       potential(ionic) =   -3.544488
PAO Filter: Cutoff used:   73.50 Ry
PAO Filter: diagnostic kin energy tol:    0.003000 Ry
PAO Filter: Nominal cutoff (before filtering):   24.64 Ry
Filter:    Number of eigenfunctions  of the
           filtering kernel (total, used)= 37 12

SPLIT: Orbitals with angular momentum L= 1

SPLIT: Basis orbitals for state 6p

   izeta = 1
                 lambda =    1.000000
                     rc =    6.161226
                 energy =   -0.228218
                kinetic =    0.741633
    potential(screened) =   -0.969851
       potential(ionic) =   -2.823604
PAO Filter: Cutoff used:   73.50 Ry
PAO Filter: diagnostic kin energy tol:    0.003000 Ry
PAO Filter: Nominal cutoff (before filtering):    9.22 Ry
Filter:    Number of eigenfunctions  of the
           filtering kernel (total, used)= 44 15

   izeta = 2
                 rmatch =    5.716035
              splitnorm =    0.049483
                 energy =   -0.174498
* WARNING: effective split_norm is quite small. Orbitals will be very similar.
                kinetic =    0.884465
    potential(screened) =   -1.058964
       potential(ionic) =   -2.950318
PAO Filter: Cutoff used:   73.50 Ry
PAO Filter: diagnostic kin energy tol:    0.003000 Ry
PAO Filter: Nominal cutoff (before filtering):    9.56 Ry
Filter:    Number of eigenfunctions  of the
           filtering kernel (total, used)= 42 13

SPLIT: Orbitals with angular momentum L= 2

SPLIT: Basis orbitals for state 6d

   izeta = 1
                 lambda =    1.000000
                     rc =    5.172080
                 energy =    0.650319
                kinetic =    1.811423
    potential(screened) =   -1.161104
       potential(ionic) =   -2.940924
PAO Filter: Cutoff used:   73.50 Ry
PAO Filter: diagnostic kin energy tol:    0.003000 Ry
PAO Filter: Nominal cutoff (before filtering):  130.05 Ry
Filter:    Number of eigenfunctions  of the
           filtering kernel (total, used)= 39 11
atom: Total number of Sankey-type orbitals: 13

atm_pop: Valence configuration (for local Pseudopot. screening):
 6s( 2.00)                                                            
 6p( 2.00)                                                            
 6d( 0.00)                                                            
Vna: chval, zval:    4.00000   4.00000

Vna:  Cut-off radius for the neutral-atom potential:   6.161226
VNA Filter: diagnostic kinetic energy tol:    0.003000 Ry
VNA Filter: Nominal cutoff (before filtering):    7.02 Ry
VNA Filter: Cutoff used:   150.00 Ry
Filter:    Number of eigenfunctions  of the
           filtering kernel (total, used)= 59 22
comcore: Pseudo-core radius Rcore=  5.574905
PCC Filter: diagnostic kin energy tol:    0.003000 Ry
PCC Filter: Nominal cutoff (before filtering):  120.12 Ry
PCC Filter: Cutoff used:   150.00 Ry
Filter:    Number of eigenfunctions  of the
           filtering kernel (total, used)= 54 20

atom: _________________________________________________________________________

prinput: Basis input ----------------------------------------------------------

PAO.BasisType split     

%block ChemicalSpeciesLabel
    1   82 Pb                      # Species index, atomic number, species label
%endblock ChemicalSpeciesLabel

%block PAO.Basis                 # Define Basis set
Pb                    3  -0.303            # Label, l-shells, ionic net charge
 n=6   0   2                         # n, l, Nzeta 
   5.437      4.920   
   1.000      1.000   
 n=6   1   2                         # n, l, Nzeta 
   6.161      5.716   
   1.000      1.000   
 n=6   2   1                         # n, l, Nzeta 
   5.172   
   1.000   
%endblock PAO.Basis

prinput: ----------------------------------------------------------------------

Dumping basis to NetCDF file Pb.ion.nc
coor:   Atomic-coordinates input format  =     Cartesian coordinates
coor:                                          (in units of alat)

siesta: Atomic coordinates (Bohr) and species
siesta:      0.00000   0.00000   0.00000  1        1

siesta: System type = bulk      

initatomlists: Number of atoms, orbitals, and projectors:      1    13    16

siesta: ******************** Simulation parameters ****************************
siesta:
siesta: The following are some of the parameters of the simulation.
siesta: A complete list of the parameters used, including default values,
siesta: can be found in file out.fdf
siesta:
redata: Non-Collinear-spin run           =     F
redata: SpinPolarized (Up/Down) run      =     F
redata: Number of spin components        =     1
redata: Long output                      =     F
redata: Number of Atomic Species         =        1
redata: Charge density info will appear in .RHO file
redata: Write Mulliken Pop.              =     NO
redata: Mesh Cutoff                      =   200.0000  Ry
redata: Net charge of the system         =     0.0000 |e|
redata: Max. number of SCF Iter          =       50
redata: Performing Pulay mixing using    =     3 iterations
redata: Mix DM in first SCF step ?       =     F
redata: Write Pulay info on disk?        =     F
redata: Discard 1st Pulay DM after  kick =     F
redata: New DM Mixing Weight             =     0.0500
redata: New DM Occupancy tolerance       = 0.000000000001
redata: No kicks to SCF
redata: DM Mixing Weight for Kicks       =     0.5000
redata: DM Tolerance for SCF             =     0.000100
redata: Require Energy convergence for SCF =     F
redata: DM Energy tolerance for SCF      =     0.000100 eV
redata: Require Harris convergence for SCF =     F
redata: DM Harris energy tolerance for SCF =     0.000100 eV
redata: Using Saved Data (generic)   =     F
redata: Use continuation files for DM    =     F
redata: Neglect nonoverlap interactions  =     F
redata: Method of Calculation            =     Diagonalization
redata: Divide and Conquer               =     T
redata: Electronic Temperature           =     0.0019  Ry
redata: Fix the spin of the system       =     F
redata: Dynamics option                  =     Verlet MD run
redata: Initial MD time step             =        1
redata:   Final MD time step             =        1
redata: Length of MD time step           =     1.0000  fs
redata: Initial Temperature of MD run    =     0.0000  K
redata: Perform a MD quench              =     F
redata: ***********************************************************************
Total number of electrons:     4.000000
Total ionic charge:     4.000000

* ProcessorY, Blocksize:    2   4

k-point displ. along   1 input, could be:     0.50    0.00
k-point displ. along   2 input, could be:     0.50    0.00
k-point displ. along   3 input, could be:     0.50    0.00
 Kpoints in:          196 . Kpoints trimmed:          196

siesta: k-grid: Number of k-points =   196
siesta: k-grid: Cutoff (effective) =    12.102 Ang
siesta: k-grid: Supercell and displacements
siesta: k-grid:    7   0   0      0.500
siesta: k-grid:    0   7   0      0.500
siesta: k-grid:    0   0   7      0.500
Naive supercell factors:     6    6    6

superc: Internal auxiliary supercell:     6 x     6 x     6  =     216
superc: Number of atoms, orbitals, and projectors:    216   2808   3456

* Maximum dynamic memory allocated =     1 MB

siesta:                 ==============================
                            Begin MD step =      1
                        ==============================

superc: Internal auxiliary supercell:     6 x     6 x     6  =     216
superc: Number of atoms, orbitals, and projectors:    216   2808   3456

outcell: Unit cell vectors (Ang):
        2.445000    2.445000    0.000000
        2.445000    0.000000    2.445000
        0.000000    2.445000    2.445000

outcell: Cell vector modules (Ang)   :    3.457752    3.457752    3.457752
outcell: Cell angles (23,13,12) (deg):     60.0000     60.0000     60.0000
outcell: Cell volume (Ang**3)        :     29.2325
New_DM. Step:     1
Initializing Density Matrix...

InitMesh: MESH =    30 x    30 x    30 =       27000
InitMesh: Mesh cutoff (required, used) =   200.000   312.067 Ry

* Maximum dynamic memory allocated =    13 MB

stepf: Fermi-Dirac step function

siesta: Program's energy decomposition (eV):
siesta: Ebs     =       -29.855317
siesta: Eions   =       122.930792
siesta: Ena     =        18.410217
siesta: Ekin    =        36.578476
siesta: Enl     =        13.411617
siesta: DEna    =         0.000001
siesta: DUscf   =         0.000000
siesta: DUext   =         0.000000
siesta: Exc     =      -291.645217
siesta: eta*DQ  =         0.000000
siesta: Emadel  =         0.000000
siesta: Emeta   =         0.000000
siesta: Emolmec =         0.000000
siesta: Ekinion =         0.000000
siesta: Eharris =      -349.850682
siesta: Etot    =      -346.175699
siesta: FreeEng =      -346.175699

siesta: iscf   Eharris(eV)      E_KS(eV)   FreeEng(eV)   dDmax  Ef(eV)
siesta:    1     -349.8507     -346.1757     -346.1757  0.2688 -2.1284
timer: Routine,Calls,Time,% = IterSCF        1       8.874  79.57
elaps: Routine,Calls,Wall,% = IterSCF        1       2.221  78.29
siesta:    2     -349.8061     -349.8022     -349.8035  0.0414 -2.2835
siesta:    3     -349.8058     -349.6147     -349.6163  0.0477 -2.2747
siesta:    4     -349.8058     -349.8136     -349.8152  0.0012 -2.2727
siesta:    5     -349.8058     -349.8062     -349.8078  0.0001 -2.2719
siesta:    6     -349.8058     -349.8062     -349.8078  0.0001 -2.2719
siesta:    7     -349.8058     -349.8056     -349.8072  0.0000 -2.2718

siesta: E_KS(eV) =             -349.8056

siesta: E_KS - E_eggbox =      -349.8056

siesta: Atomic forces (eV/Ang):
----------------------------------------
   Tot   -0.000001   -0.000001   -0.000001
----------------------------------------
   Max    0.000001
   Res    0.000001    sqrt( Sum f_i^2 / 3N )
----------------------------------------
   Max    0.000001    constrained

Stress-tensor-Voigt (kbar):       19.30       19.30       19.30       -8.71       -8.71       -8.71
(Free)E + p*V (eV/cell)     -350.1593
Target enthalpy (eV/cell)     -349.8072

siesta: Stress tensor (static) (eV/Ang**3):
         0.012047   -0.005437   -0.005437
        -0.005437    0.012047   -0.005437
        -0.005437   -0.005437    0.012047

siesta: Pressure (static):        -19.30182585  kBar

siesta: Stress tensor (total) (eV/Ang**3):
         0.012047   -0.005437   -0.005437
        -0.005437    0.012047   -0.005437
        -0.005437   -0.005437    0.012047

siesta: Pressure (total):        -19.30182585  kBar

siesta: Temp_ion =       0.000 K

* Maximum dynamic memory allocated =    14 MB

siesta: Program's energy decomposition (eV):
siesta: Ebs     =       -30.637403
siesta: Eions   =       122.930792
siesta: Ena     =        18.410217
siesta: Ekin    =        31.178545
siesta: Enl     =        11.574640
siesta: DEna    =         1.949685
siesta: DUscf   =         0.089844
siesta: DUext   =         0.000000
siesta: Exc     =      -290.077750
siesta: eta*DQ  =         0.000000
siesta: Emadel  =         0.000000
siesta: Emeta   =         0.000000
siesta: Emolmec =         0.000000
siesta: Ekinion =         0.000000
siesta: Eharris =      -349.805782
siesta: Etot    =      -349.805611
siesta: FreeEng =      -349.807170

siesta: Final energy (eV):
siesta:  Band Struct. =     -30.637403
siesta:       Kinetic =      31.178545
siesta:       Hartree =       1.229564
siesta:    Ext. field =       0.000000
siesta:   Exch.-corr. =    -290.077750
siesta:  Ion-electron =     -16.999254
siesta:       Ion-ion =     -75.136717
siesta:       Ekinion =       0.000000
siesta:         Total =    -349.805611

siesta: Stress tensor (static) (eV/Ang**3):
siesta:     0.012047   -0.005437   -0.005437
siesta:    -0.005437    0.012047   -0.005437
siesta:    -0.005437   -0.005437    0.012047

siesta: Cell volume =         29.232542 Ang**3

siesta: Pressure (static):
siesta:                Solid            Molecule  Units
siesta:          -0.00013121         -0.00013121  Ry/Bohr**3
siesta:          -0.01204712         -0.01204712  eV/Ang**3
siesta:         -19.30182585        -19.30182585  kBar
(Free)E+ p_basis*V_orbitals  =        -349.157219
(Free)Eharris+ p_basis*V_orbitals  =        -349.157403

* Maximum dynamic memory allocated : Node    0 =    14 MB
* Maximum dynamic memory allocated : Node    1 =    13 MB
* Maximum dynamic memory allocated : Node    2 =    13 MB
* Maximum dynamic memory allocated : Node    3 =    13 MB

* Maximum memory occured during ranger                        

timer: CPU execution times:
timer:  Routine       Calls   Time/call    Tot.time        %
timer:  siesta            1      29.293      29.293   100.00
timer:  Setup             1       1.851       1.851     6.32
timer:  bands             1       0.000       0.000     0.00
timer:  writewave         1       0.004       0.004     0.01
timer:  KSV_init          1       0.000       0.000     0.00
timer:  IterMD            1      27.270      27.270    93.09
timer:  hsparse           1       0.006       0.006     0.02
timer:  overlap           1       0.211       0.211     0.72
timer:  IterSCF           7       3.559      24.915    85.06
timer:  kinefsm           2       0.088       0.177     0.60
timer:  nlefsm            2       1.793       3.586    12.24
timer:  DHSCF             8       0.758       6.063    20.70
timer:  DHSCF1            1       0.340       0.340     1.16
timer:  DHSCF2            1       2.564       2.564     8.75
timer:  REORD            50       0.000       0.004     0.01
timer:  POISON            9       0.009       0.077     0.26
timer:  DHSCF3            8       0.314       2.515     8.58
timer:  rhoofd            8       0.177       1.416     4.83
timer:  cellXC            8       0.012       0.093     0.32
timer:  vmat              8       0.099       0.789     2.69
timer:  MolMec            2       0.000       0.000     0.00
timer:  diagon            7       2.357      16.497    56.32
timer:  c-eigval       1372       0.005       7.449    25.43
timer:  c-buildHS      1372       0.001       0.848     2.89
timer:  cdiag          2744       0.005      13.439    45.88
timer:  cdiag1         2744       0.000       1.044     3.56
timer:  cdiag2         2744       0.001       1.953     6.67
timer:  cdiag3         2744       0.003       8.969    30.62
timer:  cdiag4         2744       0.000       0.168     0.57
timer:  c-eigvec       1372       0.006       7.704    26.30
timer:  c-buildD       1372       0.001       1.228     4.19
timer:  DHSCF4            1       0.641       0.641     2.19
timer:  dfscf             1       0.426       0.426     1.45
timer:  overfsm           1       0.005       0.005     0.02
timer:  optical           1       0.129       0.129     0.44
  

elaps: ELAPSED times:
elaps:  Routine       Calls   Time/call    Tot.time        %
elaps:  siesta            1       7.374       7.374    99.99
elaps:  Setup             1       0.508       0.508     6.89
elaps:  bands             1       0.000       0.000     0.00
elaps:  writewave         1       0.001       0.001     0.01
elaps:  KSV_init          1       0.000       0.000     0.00
elaps:  IterMD            1       6.823       6.823    92.52
elaps:  hsparse           1       0.002       0.002     0.03
elaps:  overlap           1       0.036       0.036     0.49
elaps:  IterSCF           7       0.890       6.233    84.52
elaps:  kinefsm           2       0.014       0.028     0.38
elaps:  nlefsm            2       0.440       0.880    11.93
elaps:  DHSCF             8       0.191       1.524    20.66
elaps:  DHSCF1            1       0.084       0.084     1.14
elaps:  DHSCF2            1       0.641       0.641     8.69
elaps:  REORD            50       0.000       0.000     0.00
elaps:  POISON            9       0.002       0.018     0.24
elaps:  DHSCF3            8       0.079       0.628     8.52
elaps:  rhoofd            8       0.049       0.390     5.29
elaps:  cellXC            8       0.003       0.023     0.31
elaps:  vmat              8       0.025       0.196     2.66
elaps:  MolMec            2       0.000       0.000     0.00
elaps:  diagon            7       0.590       4.128    55.97
elaps:  c-eigval       1372       0.001       1.865    25.29
elaps:  c-buildHS      1372       0.000       0.186     2.52
elaps:  cdiag          2744       0.001       3.402    46.13
elaps:  cdiag1         2744       0.000       0.273     3.70
elaps:  cdiag2         2744       0.000       0.495     6.71
elaps:  cdiag3         2744       0.001       2.242    30.40
elaps:  cdiag4         2744       0.000       0.074     1.00
elaps:  c-eigvec       1372       0.001       2.012    27.28
elaps:  c-buildD       1372       0.000       0.215     2.92
elaps:  DHSCF4            1       0.169       0.169     2.29
elaps:  dfscf             1       0.115       0.115     1.56
elaps:  overfsm           1       0.001       0.001     0.01
elaps:  optical           1       0.000       0.000     0.00
  
>> End of run:  24-MAR-2013  18:30:11
