Siesta Version  : v4.1-b4-351
Architecture    : x86_64-linux-n-62-26-19
Compiler version: GNU Fortran (GCC) 9.3.0
Compiler flags  : mpifort -m64 -fPIC -O3 -march=native -ftree-vectorize -fexpensive-optimizatioons -funroll-loops -fprefetch-loop-arrays -fno-second-underscore  -flto
PP flags        : -I/dtu/sw/dcc/SL73/2020-aug/generic/build-tools/1.0/include -I/dtu/sw/dcc/SL773/2020-aug/generic/gcc/9.3.0/include -I/dtu/sw/dcc/SL73/2020-aug/generic/gcc/9.3.0/include -I/dtu/sw/dcc/SL73/2020-aug/XeonE5-2660v3/gnu/9.3.0/zlib/1.2.11/include -I/dtu/sw/dcc/SL73/2020-aug/generic/numactl/2.0.12/include -I/dtu/sw/dcc/SL73/2020-aug/XeonE5-2660v3/gnu/9.3.0/libxml2/2.9.10/include -I/dtu/sw/dcc/SL73/2020-aug/XeonE5-2660v3/gnu/9.3.0/hwloc/2.2.0/include -I/dtu/sw/dcc/SL73/2020-aug/XeonE5-2660v3/gnu/9.3.0/knem/1.1.4/include -I/dtu/sw/dcc/SL73/2020-aug/XeonE5-2660v3/gnu/9.3.0/ucx/1.8.1/include -I/dtu/sw/dcc/SL73/2020-aug/XeonE5-2660v3/gnu/9.3.0/openmpi/4.0.4/include -I/dtu/sw/dcc/SL73/2020-aug/XeonE5-2660v3/gnu/9.3.0/szip/2.1.1/include -I/dtu/sw/dcc/SL73/2020-aug/XeonE5-2660v3/gnu/9.3.0/hdf5/1.12.0/include -I/dtu/sw/dcc/SL73/2020-aug/XeonE5-2660v3/gnu/9.3.0/pnetcdf/1.12.1/include -I/dtu/sw/dcc/SL73/2020-aug/generic/gen-zlib/1.2.11/include -I/dtu/sw/dcc/SL73/2020-aug/generic/openssl/1.1.1/include -I/dtu/sw/dcc/SL73/2020-aug/generic/libssh2/1.8.2/include -I/dtu/sw/dcc/SL73/2020-aug/generic/curl/7.65.1/include -I/dtu/sw/dcc/SL73/2020-aug/XeonE5-2660v3/gnu/9.3.0/netcdf/4.7.4/include -I/dtu/sw/dcc/SL73/2020-aug/XeonE5-2660v3/gnu/9.3.0/flook/0.8.1/include -I/dtu/sw/dcc/SL73/2020-aug/XeonE5-2660v3/gnu/9.3.0/fftw/3.3.8/include -I/dtu/sw/dcc/SL73/2020-aug/XeonE5-2660v3/gnu/9.3.0/parmetis/4.0.3/include -I/dtu/sw/dcc/SL73/2020-aug/XeonE5-2660v3/gnu/9.3.0/scalapack/2.1.0/include -I/dtu/sw/dcc/SL73/2020-aug/XeonE5-2660v3/gnu/9.3.0/lapack/3.9.0/include -I/dtu/sw/dcc/SL73/2020-aug/XeonE5-2660v3/gnu/9.3.0/blis/0.7.0/include -I/dtu/sw/dcc/SL73/2020-aug/XeonE5-2660v3/gnu/9.3.0/scotch/6.0.9/include -I/dtu/sw/dcc/SL73/2020-aug/XeonE5-2660v3/gnu/9.3.0/mumps/5.3.3/include -I/dtu/sw/dcc/SL73/2020-aug/XeonE5-2660v3/gnu/9.3.0/elpa/2020.05.001/include -DSIESTA__ELPA -DMPI -DFC_HAVE_FLUSH -DFC_HAVE_ABORT -DCDF -DCDF4 -DSIESTA__FLOOK  -DNCDF -DNCDF_4 -DNCDF_PARALLEL -DTS_NOCHECKS -DSIESTA__METIS -DSIESTA__MUMPS -DSIESTA__MRRR -I/dtu/sw/dcc/SL73/2020-aug/XeonE5-2660v3/gnu/9.3.0/elpa/2020.05.001/include/elpa
Libraries       : libncdf.a libfdict.a -lnetcdff -lnetcdf -lpnetcdf -lhdf5_hl -lhdf5 -lz  -lzmuumps -lmumps_common -lesmumps -lscotch -lscotcherr -lpord -lparmetis -lmetis -lelpa -lscalapack -llapack -lblis  -L/dtu/sw/dcc/SL73/2020-aug/XeonE5-2660v3/gnu/9.3.0/flook/0.8.1/lib -Wl,-rpath=/dtu/sw/dcc/SL73/2020-aug/XeonE5-2660v3/gnu/9.3.0/flook/0.8.1/lib -lflookall -ldl  -flto -fuse-linker-plugin  -lmetis
PARALLEL version
NetCDF support
NetCDF-4 support
NetCDF-4 MPI-IO support
METIS ordering support
Lua support

* Running on 8 nodes in parallel
>> Start of run:  22-JAN-2021  23:21:09

                           ***********************       
                           *  WELCOME TO SIESTA  *       
                           ***********************       

reinit: Reading from ../ptcda-au.fdf

reinit: -----------------------------------------------------------------------
reinit: System Name: ptcda-A_Au
reinit: -----------------------------------------------------------------------
reinit: System Label: ptcda-au
reinit: -----------------------------------------------------------------------

initatom: Reading input for the pseudopotentials and atomic orbitals ----------
Species number:   1 Atomic number:    6 Label: C_2
Species number:   2 Atomic number:    8 Label: O
Species number:   3 Atomic number:    1 Label: H
Species number:   4 Atomic number:   79 Label: Au

Ground state valence configuration:   2s02  2p02
Reading pseudopotential information in formatted form from C_2.psf

Valence configuration for pseudopotential generation:
2s( 2.00) rc: 1.25
2p( 2.00) rc: 1.25
3d( 0.00) rc: 1.25
4f( 0.00) rc: 1.25
Ground state valence configuration:   2s02  2p04
Reading pseudopotential information in formatted form from O.psf

Valence configuration for pseudopotential generation:
2s( 2.00) rc: 1.14
2p( 4.00) rc: 1.14
3d( 0.00) rc: 1.14
4f( 0.00) rc: 1.14
Ground state valence configuration:   1s01
Reading pseudopotential information in formatted form from H.psf

Valence configuration for pseudopotential generation:
1s( 1.00) rc: 1.25
2p( 0.00) rc: 1.25
3d( 0.00) rc: 1.25
4f( 0.00) rc: 1.25
Ground state valence configuration:   6s01  5d10
Reading pseudopotential information in formatted form from Au.psf

Pseudopotential generated from a relativistic atomic calculation

Valence configuration for pseudopotential generation:
6s( 1.00) rc: 2.32
6p( 0.00) rc: 2.32
5d(10.00) rc: 2.32
5f( 0.00) rc: 2.32
For C_2, standard SIESTA heuristics set lmxkb to 2
 (one more than the basis l, including polarization orbitals).
Use PS.lmax or PS.KBprojectors blocks to override.
For O, standard SIESTA heuristics set lmxkb to 2
 (one more than the basis l, including polarization orbitals).
Use PS.lmax or PS.KBprojectors blocks to override.
For H, standard SIESTA heuristics set lmxkb to 1
 (one more than the basis l, including polarization orbitals).
Use PS.lmax or PS.KBprojectors blocks to override.
For Au, standard SIESTA heuristics set lmxkb to 3
 (one more than the basis l, including polarization orbitals).
Use PS.lmax or PS.KBprojectors blocks to override.

<basis_specs>
===============================================================================
C_2                  Z=   6    Mass=  12.010        Charge= 0.17977+309
Lmxo=1 Lmxkb= 2    BasisType=split      Semic=F
L=0  Nsemic=0  Cnfigmx=2
          i=1  nzeta=1  polorb=0  (2s)
            splnorm:   0.15000    
               vcte:    0.0000    
               rinn:    0.0000    
               qcoe:    0.0000    
               qyuk:    0.0000    
               qwid:   0.10000E-01
                rcs:    0.0000    
            lambdas:    1.0000    
L=1  Nsemic=0  Cnfigmx=2
          i=1  nzeta=1  polorb=0  (2p)
            splnorm:   0.15000    
               vcte:    0.0000    
               rinn:    0.0000    
               qcoe:    0.0000    
               qyuk:    0.0000    
               qwid:   0.10000E-01
                rcs:    0.0000    
            lambdas:    1.0000    
-------------------------------------------------------------------------------
L=0  Nkbl=1  erefs: 0.17977+309
L=1  Nkbl=1  erefs: 0.17977+309
L=2  Nkbl=1  erefs: 0.17977+309
===============================================================================
</basis_specs>

atom: Called for C_2                   (Z =   6)

read_vps: Pseudopotential generation method:
read_vps: ATM3      Troullier-Martins                       
Valence charge for ps generation:    4.00000

xc_check: Exchange-correlation functional:
xc_check: GGA Perdew, Burke & Ernzerhof 1996
xc_check: WARNING: Pseudopotential generated with LDA CA functional
V l=0 = -2*Zval/r beyond r=  1.3951
V l=1 = -2*Zval/r beyond r=  1.3777
V l=2 = -2*Zval/r beyond r=  1.3777
All V_l potentials equal beyond r=  1.2311
This should be close to max(r_c) in ps generation
All pots = -2*Zval/r beyond r=  1.3951

VLOCAL1: 99.0% of the norm of Vloc inside     28.641 Ry
VLOCAL1: 99.9% of the norm of Vloc inside     65.273 Ry
atom: Maximum radius for 4*pi*r*r*local-pseudopot. charge    1.48507
atom: Maximum radius for r*vlocal+2*Zval:    1.27815
GHOST: No ghost state for L =  0
GHOST: No ghost state for L =  1
GHOST: No ghost state for L =  2

KBgen: Kleinman-Bylander projectors: 
   l= 0   rc=  1.600766   el= -1.018363   Ekb=  7.802444   kbcos=  0.282220
   l= 1   rc=  1.620907   el= -0.411153   Ekb= -4.827757   kbcos= -0.292313
   l= 2   rc=  1.836783   el=  0.001971   Ekb= -1.327875   kbcos= -0.005321

KBgen: Total number of  Kleinman-Bylander projectors:    9
atom: -------------------------------------------------------------------------

atom: SANKEY-TYPE ORBITALS:

SPLIT: Orbitals with angular momentum L= 0

SPLIT: Basis orbitals for state 2s

SPLIT: PAO cut-off radius determined from an
SPLIT: energy shift=  0.005000 Ry

   izeta = 1
                 lambda =    1.000000
                     rc =    4.870301
                 energy =   -1.013657
                kinetic =    0.885460
    potential(screened) =   -1.899117
       potential(ionic) =   -5.463717

SPLIT: Orbitals with angular momentum L= 1

SPLIT: Basis orbitals for state 2p

SPLIT: PAO cut-off radius determined from an
SPLIT: energy shift=  0.005000 Ry

   izeta = 1
                 lambda =    1.000000
                     rc =    5.948690
                 energy =   -0.406515
                kinetic =    2.527550
    potential(screened) =   -2.934065
       potential(ionic) =   -6.388629
atom: Total number of Sankey-type orbitals:  4

atm_pop: Valence configuration (for local Pseudopot. screening):
 2s( 2.00)                                                            
 2p( 2.00)                                                            
Vna: chval, zval:    4.00000   4.00000

Vna:  Cut-off radius for the neutral-atom potential:   5.948690

atom: _________________________________________________________________________

<basis_specs>
===============================================================================
O                    Z=   8    Mass=  16.000        Charge= 0.17977+309
Lmxo=1 Lmxkb= 2    BasisType=split      Semic=F
L=0  Nsemic=0  Cnfigmx=2
          i=1  nzeta=1  polorb=0  (2s)
            splnorm:   0.15000    
               vcte:    0.0000    
               rinn:    0.0000    
               qcoe:    0.0000    
               qyuk:    0.0000    
               qwid:   0.10000E-01
                rcs:    0.0000    
            lambdas:    1.0000    
L=1  Nsemic=0  Cnfigmx=2
          i=1  nzeta=1  polorb=0  (2p)
            splnorm:   0.15000    
               vcte:    0.0000    
               rinn:    0.0000    
               qcoe:    0.0000    
               qyuk:    0.0000    
               qwid:   0.10000E-01
                rcs:    0.0000    
            lambdas:    1.0000    
-------------------------------------------------------------------------------
L=0  Nkbl=1  erefs: 0.17977+309
L=1  Nkbl=1  erefs: 0.17977+309
L=2  Nkbl=1  erefs: 0.17977+309
===============================================================================
</basis_specs>

atom: Called for O                     (Z =   8)

read_vps: Pseudopotential generation method:
read_vps: ATM3      Troullier-Martins                       
Valence charge for ps generation:    6.00000

xc_check: Exchange-correlation functional:
xc_check: GGA Perdew, Burke & Ernzerhof 1996
xc_check: WARNING: Pseudopotential generated with LDA CA functional
V l=0 = -2*Zval/r beyond r=  1.1278
V l=1 = -2*Zval/r beyond r=  1.1278
V l=2 = -2*Zval/r beyond r=  1.1278
All V_l potentials equal beyond r=  1.1278
This should be close to max(r_c) in ps generation
All pots = -2*Zval/r beyond r=  1.1278

VLOCAL1: 99.0% of the norm of Vloc inside     34.126 Ry
VLOCAL1: 99.9% of the norm of Vloc inside     77.774 Ry
atom: Maximum radius for 4*pi*r*r*local-pseudopot. charge    1.37759
atom: Maximum radius for r*vlocal+2*Zval:    1.18566
GHOST: No ghost state for L =  0
GHOST: No ghost state for L =  1
GHOST: No ghost state for L =  2

KBgen: Kleinman-Bylander projectors: 
   l= 0   rc=  1.294105   el= -1.764717   Ekb=  9.120606   kbcos=  0.329038
   l= 1   rc=  1.294105   el= -0.698441   Ekb= -8.119783   kbcos= -0.400859
   l= 2   rc=  1.448233   el=  0.002031   Ekb= -2.039067   kbcos= -0.003490

KBgen: Total number of  Kleinman-Bylander projectors:    9
atom: -------------------------------------------------------------------------

atom: SANKEY-TYPE ORBITALS:

SPLIT: Orbitals with angular momentum L= 0

SPLIT: Basis orbitals for state 2s

SPLIT: PAO cut-off radius determined from an
SPLIT: energy shift=  0.005000 Ry

   izeta = 1
                 lambda =    1.000000
                     rc =    3.840021
                 energy =   -1.760159
                kinetic =    1.577570
    potential(screened) =   -3.337729
       potential(ionic) =  -11.245574

SPLIT: Orbitals with angular momentum L= 1

SPLIT: Basis orbitals for state 2p

SPLIT: PAO cut-off radius determined from an
SPLIT: energy shift=  0.005000 Ry

   izeta = 1
                 lambda =    1.000000
                     rc =    4.690281
                 energy =   -0.693807
                kinetic =    4.951026
    potential(screened) =   -5.644833
       potential(ionic) =  -13.360775
atom: Total number of Sankey-type orbitals:  4

atm_pop: Valence configuration (for local Pseudopot. screening):
 2s( 2.00)                                                            
 2p( 4.00)                                                            
Vna: chval, zval:    6.00000   6.00000

Vna:  Cut-off radius for the neutral-atom potential:   4.690281

atom: _________________________________________________________________________

<basis_specs>
===============================================================================
H                    Z=   1    Mass=  1.0100        Charge= 0.17977+309
Lmxo=0 Lmxkb= 1    BasisType=split      Semic=F
L=0  Nsemic=0  Cnfigmx=1
          i=1  nzeta=1  polorb=0  (1s)
            splnorm:   0.15000    
               vcte:    0.0000    
               rinn:    0.0000    
               qcoe:    0.0000    
               qyuk:    0.0000    
               qwid:   0.10000E-01
                rcs:    0.0000    
            lambdas:    1.0000    
-------------------------------------------------------------------------------
L=0  Nkbl=1  erefs: 0.17977+309
L=1  Nkbl=1  erefs: 0.17977+309
===============================================================================
</basis_specs>

atom: Called for H                     (Z =   1)

read_vps: Pseudopotential generation method:
read_vps: ATM3      Troullier-Martins                       
Valence charge for ps generation:    1.00000

xc_check: Exchange-correlation functional:
xc_check: GGA Perdew, Burke & Ernzerhof 1996
xc_check: WARNING: Pseudopotential generated with LDA CA functional
V l=0 = -2*Zval/r beyond r=  1.2343
V l=1 = -2*Zval/r beyond r=  1.2189
All V_l potentials equal beyond r=  1.2343
This should be close to max(r_c) in ps generation
All pots = -2*Zval/r beyond r=  1.2343

VLOCAL1: 99.0% of the norm of Vloc inside     28.493 Ry
VLOCAL1: 99.9% of the norm of Vloc inside     64.935 Ry
atom: Maximum radius for 4*pi*r*r*local-pseudopot. charge    1.45251
atom: Maximum radius for r*vlocal+2*Zval:    1.21892
GHOST: No ghost state for L =  0
GHOST: No ghost state for L =  1

KBgen: Kleinman-Bylander projectors: 
   l= 0   rc=  1.364359   el= -0.488086   Ekb= -2.002077   kbcos= -0.347561
   l= 1   rc=  1.434438   el=  0.001075   Ekb= -0.501617   kbcos= -0.021754

KBgen: Total number of  Kleinman-Bylander projectors:    4
atom: -------------------------------------------------------------------------

atom: SANKEY-TYPE ORBITALS:

SPLIT: Orbitals with angular momentum L= 0

SPLIT: Basis orbitals for state 1s

SPLIT: PAO cut-off radius determined from an
SPLIT: energy shift=  0.005000 Ry

   izeta = 1
                 lambda =    1.000000
                     rc =    5.752124
                 energy =   -0.483195
                kinetic =    0.910393
    potential(screened) =   -1.393588
       potential(ionic) =   -1.904645
atom: Total number of Sankey-type orbitals:  1

atm_pop: Valence configuration (for local Pseudopot. screening):
 1s( 1.00)                                                            
Vna: chval, zval:    1.00000   1.00000

Vna:  Cut-off radius for the neutral-atom potential:   5.752124

atom: _________________________________________________________________________

<basis_specs>
===============================================================================
Au                   Z=  79    Mass=  196.97        Charge= 0.17977+309
Lmxo=2 Lmxkb= 3    BasisType=split      Semic=F
L=0  Nsemic=0  Cnfigmx=6
          i=1  nzeta=1  polorb=0  (6s)
            splnorm:   0.15000    
               vcte:    0.0000    
               rinn:    0.0000    
               qcoe:    0.0000    
               qyuk:    0.0000    
               qwid:   0.10000E-01
                rcs:    0.0000    
            lambdas:    1.0000    
L=1  Nsemic=0  Cnfigmx=6
L=2  Nsemic=0  Cnfigmx=5
          i=1  nzeta=1  polorb=0  (5d)
            splnorm:   0.15000    
               vcte:    0.0000    
               rinn:    0.0000    
               qcoe:    0.0000    
               qyuk:    0.0000    
               qwid:   0.10000E-01
                rcs:    0.0000    
            lambdas:    1.0000    
-------------------------------------------------------------------------------
L=0  Nkbl=1  erefs: 0.17977+309
L=1  Nkbl=1  erefs: 0.17977+309
L=2  Nkbl=1  erefs: 0.17977+309
L=3  Nkbl=1  erefs: 0.17977+309
===============================================================================
</basis_specs>

atom: Called for Au                    (Z =  79)

read_vps: Pseudopotential generation method:
read_vps: ATM3      Troullier-Martins                       
Valence charge for ps generation:   11.00000

xc_check: Exchange-correlation functional:
xc_check: GGA Perdew, Burke & Ernzerhof 1996
xc_check: WARNING: Pseudopotential generated with LDA CA functional
V l=0 = -2*Zval/r beyond r=  3.7361
V l=1 = -2*Zval/r beyond r=  3.7361
V l=2 = -2*Zval/r beyond r=  3.7361
V l=3 = -2*Zval/r beyond r=  3.7361
All V_l potentials equal beyond r=  2.2946
This should be close to max(r_c) in ps generation
All pots = -2*Zval/r beyond r=  3.7361
Using large-core scheme for Vlocal

atom: Estimated core radius    3.73611

atom: Including non-local core corrections could be a good idea
atom: Maximum radius for 4*pi*r*r*local-pseudopot. charge    4.07775
atom: Maximum radius for r*vlocal+2*Zval:    3.78310
GHOST: No ghost state for L =  0
GHOST: No ghost state for L =  1
GHOST: No ghost state for L =  2
GHOST: No ghost state for L =  3

KBgen: Kleinman-Bylander projectors: 
   l= 0   rc=  2.382235   el= -0.432951   Ekb=  4.523684   kbcos=  0.277931
   l= 1   rc=  2.382235   el= -0.057542   Ekb=  2.566494   kbcos=  0.219539
   l= 2   rc=  2.382235   el= -0.543021   Ekb= -5.024865   kbcos= -0.682686
   l= 3   rc=  2.382235   el=  0.003083   Ekb= -2.075137   kbcos= -0.012799

KBgen: Total number of  Kleinman-Bylander projectors:   16
atom: -------------------------------------------------------------------------

atom: SANKEY-TYPE ORBITALS:

SPLIT: Orbitals with angular momentum L= 0

SPLIT: Basis orbitals for state 6s

SPLIT: PAO cut-off radius determined from an
SPLIT: energy shift=  0.005000 Ry

   izeta = 1
                 lambda =    1.000000
                     rc =    7.246712
                 energy =   -0.428382
                kinetic =    0.368903
    potential(screened) =   -0.797286
       potential(ionic) =   -8.432228

SPLIT: Orbitals with angular momentum L= 2

SPLIT: Basis orbitals for state 5d

SPLIT: PAO cut-off radius determined from an
SPLIT: energy shift=  0.005000 Ry

   izeta = 1
                 lambda =    1.000000
                     rc =    5.106662
                 energy =   -0.538622
                kinetic =    4.915102
    potential(screened) =   -5.453724
       potential(ionic) =  -16.218431
atom: Total number of Sankey-type orbitals:  6

atm_pop: Valence configuration (for local Pseudopot. screening):
 6s( 1.00)                                                            
 6p( 0.00)                                                            
 5d(10.00)                                                            
Vna: chval, zval:   11.00000  11.00000

Vna:  Cut-off radius for the neutral-atom potential:   7.246712

atom: _________________________________________________________________________

prinput: Basis input ----------------------------------------------------------

PAO.BasisType split     

%block ChemicalSpeciesLabel
    1    6 C_2                     # Species index, atomic number, species label
    2    8 O                       # Species index, atomic number, species label
    3    1 H                       # Species index, atomic number, species label
    4   79 Au                      # Species index, atomic number, species label
%endblock ChemicalSpeciesLabel

%block PAO.Basis                 # Define Basis set
C_2                   2                    # Species label, number of l-shells
 n=2   0   1                         # n, l, Nzeta 
   4.870   
   1.000   
 n=2   1   1                         # n, l, Nzeta 
   5.949   
   1.000   
O                     2                    # Species label, number of l-shells
 n=2   0   1                         # n, l, Nzeta 
   3.840   
   1.000   
 n=2   1   1                         # n, l, Nzeta 
   4.690   
   1.000   
H                     1                    # Species label, number of l-shells
 n=1   0   1                         # n, l, Nzeta 
   5.752   
   1.000   
Au                    2                    # Species label, number of l-shells
 n=6   0   1                         # n, l, Nzeta 
   7.247   
   1.000   
 n=5   2   1                         # n, l, Nzeta 
   5.107   
   1.000   
%endblock PAO.Basis

prinput: ----------------------------------------------------------------------

Dumping basis to NetCDF file C_2.ion.nc
Dumping basis to NetCDF file O.ion.nc
Dumping basis to NetCDF file H.ion.nc
Dumping basis to NetCDF file Au.ion.nc
coor:   Atomic-coordinates input format  =     Cartesian coordinates
coor:                                          (in Angstroms)

siesta: Atomic coordinates (Bohr) and species
siesta:     22.24250  38.54039  13.30024  4        1
siesta:      2.65942   4.54848  13.33710  4        2
siesta:      2.65662   1.31311   8.73443  4        3
siesta:     22.28388   6.27325   8.76369  4        4
siesta:      0.00000   3.18921   4.47460  4        5
siesta:      2.76194   7.97303   4.47460  4        6
siesta:      0.00000   0.00000   0.00000  4        7
siesta:      2.76194   4.78382   0.00000  4        8
siesta:     22.25898   9.46870  13.26138  4        9
siesta:      2.59458  14.26766  13.35850  4       10
siesta:      2.70616  11.08041   8.88319  4       11
siesta:     22.24758  15.92017   8.81925  4       12
siesta:      0.00000  12.75685   4.47460  4       13
siesta:      2.76194  17.54066   4.47460  4       14
siesta:      0.00000   9.56763   0.00000  4       15
siesta:      2.76194  14.35145   0.00000  4       16
siesta:     22.23678  19.13133  13.42695  4       17
siesta:      2.71682  23.91699  13.48568  4       18
siesta:      2.63617  20.73710   8.89876  4       19
siesta:     22.29234  25.53857   8.77794  4       20
siesta:      0.00000  22.32448   4.47460  4       21
siesta:      2.76194  27.10830   4.47460  4       22
siesta:      0.00000  19.13527   0.00000  4       23
siesta:      2.76194  23.91909   0.00000  4       24
siesta:     22.27545  28.80189  13.16000  4       25
siesta:      2.61373  33.65775  13.18624  4       26
siesta:      2.71466  30.35791   8.82386  4       27
siesta:     22.23185  35.26136   8.78333  4       28
siesta:      0.00000  31.89212   4.47460  4       29
siesta:      2.76194  36.67594   4.47460  4       30
siesta:      0.00000  28.70291   0.00000  4       31
siesta:      2.76194  33.48672   0.00000  4       32
siesta:      5.45113  38.56751  13.19731  4       33
siesta:      8.23569   4.58126  13.39058  4       34
siesta:      8.27003   1.27854   8.70599  4       35
siesta:      5.47752   6.18274   8.90478  4       36
siesta:      5.52388   3.18921   4.47460  4       37
siesta:      8.28582   7.97303   4.47460  4       38
siesta:      5.52388   0.00000   0.00000  4       39
siesta:      8.28582   4.78382   0.00000  4       40
siesta:      5.44381   9.41012  13.41205  4       41
siesta:      8.22888  14.37207  13.22539  4       42
siesta:      8.23606  11.03167   8.85501  4       43
siesta:      5.42454  15.91315   8.85273  4       44
siesta:      5.52388  12.75685   4.47460  4       45
siesta:      8.28582  17.54066   4.47460  4       46
siesta:      5.52388   9.56763   0.00000  4       47
siesta:      8.28582  14.35145   0.00000  4       48
siesta:      5.42670  19.15184  13.29401  4       49
siesta:      8.29653  24.00094  13.47557  4       50
siesta:      8.28841  20.69926   8.87787  4       51
siesta:      5.47120  25.47033   8.91527  4       52
siesta:      5.52388  22.32448   4.47460  4       53
siesta:      8.28582  27.10830   4.47460  4       54
siesta:      5.52388  19.13527   0.00000  4       55
siesta:      8.28582  23.91909   0.00000  4       56
siesta:      5.51511  28.80662  13.26857  4       57
siesta:      8.30958  33.73632  13.24359  4       58
siesta:      8.30998  30.32466   8.86126  4       59
siesta:      5.47923  35.20769   8.84154  4       60
siesta:      5.52388  31.89212   4.47460  4       61
siesta:      8.28582  36.67594   4.47460  4       62
siesta:      5.52388  28.70291   0.00000  4       63
siesta:      8.28582  33.48672   0.00000  4       64
siesta:     11.09038  38.54576  13.21056  4       65
siesta:     13.80853   4.48030  13.40511  4       66
siesta:     13.89352   1.28870   8.74923  4       67
siesta:     11.04893   6.14890   8.89697  4       68
siesta:     11.04775   3.18921   4.47460  4       69
siesta:     13.80969   7.97303   4.47460  4       70
siesta:     11.04775   0.00000   0.00000  4       71
siesta:     13.80969   4.78382   0.00000  4       72
siesta:     11.02430   9.45093  13.22820  4       73
siesta:     13.90806  14.28605  13.25282  4       74
siesta:     13.83948  11.07753   8.82269  4       75
siesta:     11.06431  15.90252   8.85321  4       76
siesta:     11.04775  12.75685   4.47460  4       77
siesta:     13.80969  17.54066   4.47460  4       78
siesta:     11.04775   9.56763   0.00000  4       79
siesta:     13.80969  14.35145   0.00000  4       80
siesta:     11.10115  19.19236  13.35308  4       81
siesta:     13.85021  23.96294  13.41176  4       82
siesta:     13.88339  20.72660   8.89280  4       83
siesta:     11.03870  25.51078   8.90319  4       84
siesta:     11.04775  22.32448   4.47460  4       85
siesta:     13.80969  27.10830   4.47460  4       86
siesta:     11.04775  19.13527   0.00000  4       87
siesta:     13.80969  23.91909   0.00000  4       88
siesta:     11.09083  28.81037  13.42836  4       89
siesta:     13.90827  33.64950  13.40721  4       90
siesta:     13.83540  30.36889   8.89206  4       91
siesta:     11.10248  35.22007   8.84944  4       92
siesta:     11.04775  31.89212   4.47460  4       93
siesta:     13.80969  36.67594   4.47460  4       94
siesta:     11.04775  28.70291   0.00000  4       95
siesta:     13.80969  33.48672   0.00000  4       96
siesta:     16.68791  38.51365  13.33795  4       97
siesta:     19.50979   4.56475  13.08304  4       98
siesta:     19.47386   1.28732   8.63398  4       99
siesta:     16.59598   6.17215   8.84397  4      100
siesta:     16.57163   3.18921   4.47460  4      101
siesta:     19.33357   7.97303   4.47460  4      102
siesta:     16.57163   0.00000   0.00000  4      103
siesta:     19.33357   4.78382   0.00000  4      104
siesta:     16.63998   9.40424  13.15509  4      105
siesta:     19.48790  14.35105  13.39564  4      106
siesta:     19.47315  11.10579   8.78934  4      107
siesta:     16.67766  15.91986   8.87898  4      108
siesta:     16.57163  12.75685   4.47460  4      109
siesta:     19.33357  17.54066   4.47460  4      110
siesta:     16.57163   9.56763   0.00000  4      111
siesta:     19.33357  14.35145   0.00000  4      112
siesta:     16.68858  19.16276  13.42236  4      113
siesta:     19.47124  24.00171  13.16753  4      114
siesta:     19.46641  20.71074   8.80034  4      115
siesta:     16.61520  25.54821   8.84984  4      116
siesta:     16.57163  22.32448   4.47460  4      117
siesta:     19.33357  27.10830   4.47460  4      118
siesta:     16.57163  19.13527   0.00000  4      119
siesta:     19.33357  23.91909   0.00000  4      120
siesta:     16.65515  28.85419  13.28989  4      121
siesta:     19.45034  33.73180  13.36801  4      122
siesta:     19.46396  30.39531   8.77894  4      123
siesta:     16.64868  35.20839   8.89192  4      124
siesta:     16.57163  31.89212   4.47460  4      125
siesta:     19.33357  36.67594   4.47460  4      126
siesta:     16.57163  28.70291   0.00000  4      127
siesta:     19.33357  33.48672   0.00000  4      128
siesta:      4.97922  29.76095  18.89727  1      129
siesta:      1.83121  33.28265  18.89727  1      130
siesta:      4.39268  32.40535  18.89727  1      131
siesta:      6.40763  34.21313  18.89727  1      132
siesta:      1.37039  35.91190  18.89727  1      133
siesta:      3.34320  37.66061  18.89727  1      134
siesta:      7.54287  29.00815  18.89727  1      135
siesta:      9.49542  30.77629  18.89727  1      136
siesta:      8.95813  33.37144  18.89727  1      137
siesta:      5.85706  36.83884  18.89727  1      138
siesta:     11.02191  35.19985  18.89727  1      139
siesta:      7.89389  38.69028  18.89727  1      140
siesta:      2.93124  27.93373  18.89727  1      141
siesta:     22.17463  31.45402  18.89727  1      142
siesta:      0.36973  28.81051  18.89727  1      143
siesta:     20.75263  26.99514  18.89727  1      144
siesta:     19.61187  32.20269  18.89727  1      145
siesta:     17.66285  30.42200  18.89727  1      146
siesta:      3.40563  25.30670  18.89727  1      147
siesta:      1.43455  23.54981  18.89727  1      148
siesta:     21.31121  24.37153  18.89727  1      149
siesta:     18.20300  27.82938  18.89727  1      150
siesta:     19.28302  22.51450  18.89727  1      151
siesta:     16.14546  25.98938  18.89727  1      152
siesta:     14.15369  13.80147  18.89727  1      153
siesta:     11.03241  10.25237  18.89727  1      154
siesta:     11.59881  12.90000  18.89727  1      155
siesta:      9.56832  14.68980  18.89727  1      156
siesta:      8.47569   9.47429  18.89727  1      157
siesta:      6.50774  11.22484  18.89727  1      158
siesta:     14.59221  16.43525  18.89727  1      159
siesta:     12.60238  18.16958  18.89727  1      160
siesta:     10.09622  17.32283  18.89727  1      161
siesta:      7.02722  13.82422  18.89727  1      162
siesta:      8.04421  19.15585  18.89727  1      163
siesta:      4.95286  15.63596  18.89727  1      164
siesta:     16.22210  11.98981  18.89727  1      165
siesta:     13.09657   8.44273  18.89727  1      166
siesta:     15.65112   9.34400  18.89727  1      167
siesta:     17.67905   7.54762  18.89727  1      168
siesta:     12.64644   5.81499  18.89727  1      169
siesta:     14.63475   4.07614  18.89727  1      170
siesta:     18.77865  12.75832  18.89727  1      171
siesta:     20.74242  10.99440  18.89727  1      172
siesta:     20.22190   8.39988  18.89727  1      173
siesta:     17.14174   4.92237  18.92229  1      174
siesta:     22.29215   6.57436  18.89727  1      175
siesta:     19.18039   3.08234  18.89727  1      176
siesta:     10.37438  37.76210  18.97947  2      177
siesta:      7.64527   2.20940  18.91549  2      178
siesta:     13.29116  34.70688  18.88783  2      179
siesta:     16.80626  23.42962  19.02416  2      180
siesta:     13.87431  26.46740  18.90784  2      181
siesta:     19.54744  20.20379  18.87432  2      182
siesta:      5.57536  18.20209  19.00884  2      183
siesta:      2.68620  15.12639  18.86489  2      184
siesta:      8.26881  21.46784  18.90824  2      185
siesta:     21.65043   4.00949  19.02252  2      186
siesta:     18.92237   0.77238  18.84821  2      187
siesta:      2.16354   7.06674  18.90763  2      188
siesta:      2.93836   0.88806  18.95492  3      189
siesta:     11.44464  30.12136  18.96279  3      190
siesta:     21.84933  36.65446  18.95238  3      191
siesta:      8.05439  27.01809  18.96151  3      192
siesta:     15.71304  31.07158  18.96231  3      193
siesta:      1.84532  21.53366  18.97388  3      194
siesta:     19.09285  34.18976  19.01156  3      195
siesta:      5.32221  24.56704  18.97562  3      196
siesta:      4.56491  10.55244  18.97282  3      197
siesta:     12.98895  20.19010  18.97275  3      198
siesta:      7.98352   7.47886  18.96289  3      199
siesta:     16.50394  17.19098  18.95427  3      200
siesta:     14.24701   2.05525  18.96218  3      201
siesta:      0.29043  11.66320  18.95964  3      202
siesta:     10.73579   5.05654  18.95025  3      203
siesta:     19.27943  14.74999  19.01846  3      204

siesta: System type = slab      

initatomlists: Number of atoms, orbitals, and projectors:    204  1024  2652

siesta: ******************** Simulation parameters ****************************
siesta:
siesta: The following are some of the parameters of the simulation.
siesta: A complete list of the parameters used, including default values,
siesta: can be found in file out.fdf
siesta:
redata: Spin configuration                          = none
redata: Number of spin components                   = 1
redata: Time-Reversal Symmetry                      = T
redata: Spin spiral                                 = F
redata: Long output                                 =   F
redata: Number of Atomic Species                    =        4
redata: Charge density info will appear in .RHO file
redata: Write Mulliken Pop.                         = NO
redata: Matel table size (NRTAB)                    =     1024
redata: Mesh Cutoff                                 =   225.0000 Ry
redata: Net charge of the system                    =     0.0000 |e|
redata: Min. number of SCF Iter                     =        0
redata: Max. number of SCF Iter                     =     1000
redata: SCF convergence failure will abort job
redata: SCF mix quantity                            = Hamiltonian
redata: Mix DM or H after convergence               =   F
redata: Recompute H after scf cycle                 =   F
redata: Mix DM in first SCF step                    =   T
redata: Write Pulay info on disk                    =   F
redata: New DM Occupancy tolerance                  = 0.000000000001
redata: No kicks to SCF
redata: DM Mixing Weight for Kicks                  =     0.5000
redata: Require Harris convergence for SCF          =   F
redata: Harris energy tolerance for SCF             =     0.000100 eV
redata: Require DM convergence for SCF              =   T
redata: DM tolerance for SCF                        =     0.000100
redata: Require EDM convergence for SCF             =   F
redata: EDM tolerance for SCF                       =     0.001000 eV
redata: Require H convergence for SCF               =   T
redata: Hamiltonian tolerance for SCF               =     0.001000 eV
redata: Require (free) Energy convergence for SCF   =   F
redata: (free) Energy tolerance for SCF             =     0.000100 eV
redata: Using Saved Data (generic)                  =   F
redata: Use continuation files for DM               =   T
redata: Neglect nonoverlap interactions             =   F
redata: Method of Calculation                       = Diagonalization
redata: Electronic Temperature                      =   299.9869 K
redata: Fix the spin of the system                  =   F
redata: Dynamics option                             = Single-point calculation
mix.SCF: Pulay mixing                            = Pulay
mix.SCF:    Variant                              = stable
mix.SCF:    History steps                        = 10
mix.SCF:    Linear mixing weight                 =     0.100000
mix.SCF:    Mixing weight                        =     0.100000
mix.SCF:    SVD condition                        = 0.1000E-07
redata: Save all siesta data in one NC              =   F
redata: ***********************************************************************

%block SCF.Mixers
  Pulay
%endblock SCF.Mixers

%block SCF.Mixer.Pulay
  # Mixing method
  method pulay
  variant stable

  # Mixing options
  weight 0.1000
  weight.linear 0.1000
  history 10
%endblock SCF.Mixer.Pulay

DM_history_depth set to one: no extrapolation allowed by default for geometry relaxation
Size of DM history Fstack: 1
Total number of electrons:  1688.000000
Total ionic charge:  1688.000000

* ProcessorY, Blocksize:    2  24


* Orbital distribution balance (max,min):   144   120

 Kpoints in:            1 . Kpoints trimmed:            1

siesta: k-grid: Number of k-points =     1
siesta: k-grid: Cutoff (effective) =     5.926 Ang
siesta: k-grid: Supercell and displacements
siesta: k-grid:    1   0   0      0.000
siesta: k-grid:    0   1   0      0.000
siesta: k-grid:    0   0   1      0.000

diag: Algorithm                                     = D&C
diag: Parallel over k                               =   F
diag: Use parallel 2D distribution                  =   T
diag: Parallel block-size                           = 24
diag: Parallel distribution                         =     2 x     4
diag: Used triangular part                          = Lower
diag: Absolute tolerance                            =  0.100E-15
diag: Orthogonalization factor                      =  0.100E-05
diag: Memory factor                                 =  1.0000


ts: **************************************************************
ts: Save H and S matrices                           =    F
ts: Save DM and EDM matrices                        =    F
ts: Only save the overlap matrix S                  =    F
ts: **************************************************************

************************ Begin: TS CHECKS AND WARNINGS ************************
************************ End: TS CHECKS AND WARNINGS **************************


                     ====================================
                        Single-point calculation
                     ====================================

outcell: Unit cell vectors (Ang):
       11.851110    0.000000    0.000000
        0.000000   20.526700    0.000000
        0.000000    0.000000   50.000000

outcell: Cell vector modules (Ang)   :   11.851110   20.526700   50.000000
outcell: Cell angles (23,13,12) (deg):     90.0000     90.0000     90.0000
outcell: Cell volume (Ang**3)        :  12163.2090
Gamma-point calculation with multiply-connected orbital pairs
Folding of H and S implicitly performed
<dSpData1D:S at geom step 0
  <sparsity:sparsity for geom step 0
    nrows_g=1024 nrows=144 sparsity=.0468 nnzs=49035, refcount: 7>
  <dData1D:(new from dSpData1D) n=49035, refcount: 1>
refcount: 1>
new_DM -- step:     1
Initializing Density Matrix...

Attempting to read DM from file... Failed...
DM filled with atomic data:
<dSpData2D:DM initialized from atoms
  <sparsity:sparsity for geom step 0
    nrows_g=1024 nrows=144 sparsity=.0468 nnzs=49035, refcount: 8>
  <dData2D:DM n=49035 m=1, refcount: 1>
refcount: 1>
No. of atoms with KB's overlaping orbs in proc 0. Max # of overlaps:     137     117
New grid distribution:   1
           1       1:   54    1:   48    1:   60
           2       1:   54    1:   48   61:  120
           3       1:   54    1:   48  121:  180
           4       1:   54    1:   48  181:  240
           5       1:   54   49:   96    1:   60
           6       1:   54   49:   96   61:  120
           7       1:   54   49:   96  121:  180
           8       1:   54   49:   96  181:  240

InitMesh: MESH =   108 x   192 x   480 =     9953280
InitMesh: (bp) =    54 x    96 x   240 =     1244160
InitMesh: Mesh cutoff (required, used) =   225.000   229.526 Ry
ExtMesh (bp) on 0 =   126 x   120 x   136 =     2056320
New grid distribution:   2
           1       1:   54    1:   48   29:   43
           2       1:   54    1:   48   44:  240
           3       1:   54   49:   96    1:   15
           4       1:   54   49:   96   16:   28
           5       1:   54   49:   96   29:   43
           6       1:   54   49:   96   44:  240
           7       1:   54    1:   48    1:   15
           8       1:   54    1:   48   16:   28
New grid distribution:   3
           1       1:   54    1:   48   41:   60
           2       1:   54    1:   48   61:  240
           3       1:   54   49:   96    1:   20
           4       1:   54   49:   96   21:   40
           5       1:   54   49:   96   41:   60
           6       1:   54   49:   96   61:  240
           7       1:   54    1:   48    1:   20
           8       1:   54    1:   48   21:   40
Setting up quadratic distribution...
ExtMesh (bp) on 0 =   126 x   120 x    91 =     1375920
PhiOnMesh: Number of (b)points on node 0 =                38880
PhiOnMesh: nlist on node 0 =              1424570

stepf: Fermi-Dirac step function

siesta: Program's energy decomposition (eV):
siesta: Ebs     =    -40115.520667
siesta: Eions   =    174723.839703
siesta: Ena     =     14245.060025
siesta: Ekin    =     93992.401120
siesta: Enl     =    -40234.140579
siesta: Eso     =         0.000000
siesta: Edftu   =         0.000000
siesta: DEna    =        57.376720
siesta: DUscf   =      1276.607154
siesta: DUext   =         0.000000
siesta: Exc     =    -22145.607804
siesta: eta*DQ  =         0.000000
siesta: Emadel  =         0.000000
siesta: Emeta   =         0.000000
siesta: Emolmec =         0.000000
siesta: Ekinion =         0.000000
siesta: Eharris =   -124901.108052
siesta: Etot    =   -127532.143066
siesta: FreeEng =   -127532.197218

        iscf     Eharris(eV)        E_KS(eV)     FreeEng(eV)     dDmax    Ef(eV) dHmax(eV)
   scf:    1  -124901.108052  -127532.143066  -127532.197218  1.484012 -2.204496 57.098540
timer: Routine,Calls,Time,% = IterSCF        1       5.566  42.75
   scf:    2  -111258.470001  -123996.547028  -123996.911065  1.899072 -3.659016119.817175
   scf:    3  -127891.182126  -128638.869208  -128638.869450  1.935670 -3.836423 14.609600
   scf:    4  -128710.387952  -128691.589327  -128691.590913  0.139544 -3.841515  4.782310
   scf:    5  -128684.863720  -128695.632816  -128695.745083  0.213891 -4.072527  5.113951
   scf:    6  -128700.977146  -128700.466882  -128700.528295  0.062507 -4.173469  1.377898
   scf:    7  -128695.822423  -128699.203053  -128699.335647  0.061602 -4.334832  3.420378
   scf:    8  -128700.619279  -128701.087139  -128701.153220  0.063052 -4.515270  0.784356
   scf:    9  -128701.164422  -128701.147792  -128701.227710  0.011327 -4.602562  0.403469
   scf:   10  -128701.200869  -128701.192693  -128701.283068  0.007739 -4.632257  0.426890
   scf:   11  -128701.266319  -128701.245136  -128701.329513  0.011576 -4.658410  0.168336
   scf:   12  -128701.234692  -128701.246147  -128701.334057  0.004263 -4.660940  0.139323
   scf:   13  -128701.254513  -128701.255469  -128701.338336  0.004161 -4.664434  0.090051
   scf:   14  -128701.253046  -128701.255135  -128701.340211  0.001474 -4.666006  0.024386
   scf:   15  -128701.255812  -128701.255509  -128701.340517  0.000577 -4.667889  0.015943
   scf:   16  -128701.256227  -128701.255879  -128701.340606  0.000281 -4.668220  0.009224
   scf:   17  -128701.256183  -128701.256033  -128701.340658  0.000217 -4.668658  0.005553
   scf:   18  -128701.256252  -128701.256145  -128701.340682  0.000207 -4.668806  0.003160
   scf:   19  -128701.256184  -128701.256164  -128701.340685  0.000059 -4.668926  0.002388
   scf:   20  -128701.256185  -128701.256175  -128701.340686  0.000037 -4.669058  0.001522
   scf:   21  -128701.256185  -128701.256180  -128701.340686  0.000016 -4.669268  0.000672

SCF Convergence by DM+H criterion
max |DM_out - DM_in|         :     0.0000164794
max |H_out - H_in|      (eV) :     0.0006720693
SCF cycle converged after 21 iterations

Using DM_out to compute the final energy and forces
No. of atoms with KB's overlaping orbs in proc 0. Max # of overlaps:     137     117

siesta: E_KS(eV) =          -128701.2562

siesta: E_KS - E_eggbox =   -128701.2562

siesta: Atomic forces (eV/Ang):
----------------------------------------
   Tot    0.175547   -0.295439   -0.157063
----------------------------------------
   Max    7.910483
   Res    1.278317    sqrt( Sum f_i^2 / 3N )
----------------------------------------
   Max    7.910483    constrained

Stress tensor Voigt[x,y,z,yz,xz,xy] (kbar):      -32.68      -35.65      -21.75       -0.21       -0.02        0.01
(Free)E + p*V (eV/cell)  -128473.4009
Target enthalpy (eV/cell)  -128701.3407

siesta: Program's energy decomposition (eV):
siesta: Ebs     =    -16832.157386
siesta: Eions   =    174723.839703
siesta: Ena     =     14245.060025
siesta: Ekin    =     94158.596268
siesta: Enl     =    -40605.943526
siesta: Eso     =         0.000000
siesta: Edftu   =         0.000000
siesta: DEna    =       363.243204
siesta: DUscf   =        28.473614
siesta: DUext   =         0.000000
siesta: Exc     =    -22166.846062
siesta: eta*DQ  =         0.000000
siesta: Emadel  =         0.000000
siesta: Emeta   =         0.000000
siesta: Emolmec =         0.000000
siesta: Ekinion =         0.000000
siesta: Eharris =   -128701.256185
siesta: Etot    =   -128701.256180
siesta: FreeEng =   -128701.340686

siesta: Final energy (eV):
siesta:  Band Struct. =  -16832.157386
siesta:       Kinetic =   94158.596268
siesta:       Hartree = 2581495.777306
siesta:       Edftu   =       0.000000
siesta:       Eso     =       0.000000
siesta:    Ext. field =       0.000000
siesta:   Exch.-corr. =  -22166.846062
siesta:  Ion-electron =-5245155.884364
siesta:       Ion-ion = 2462967.100672
siesta:       Ekinion =       0.000000
siesta:         Total = -128701.256180
siesta:         Fermi =      -4.669268

siesta: Atomic forces (eV/Ang):
siesta:      1    0.073078   -0.050672    0.868238
siesta:      2   -0.036347    0.019459    0.788550
siesta:      3    0.023790   -0.019718   -0.153963
siesta:      4   -0.003730    0.030090   -0.066147
siesta:      5   -0.434545   -0.459061   -0.139340
siesta:      6   -0.239837    0.035463    0.328847
siesta:      7   -0.287374   -0.416924   -0.282128
siesta:      8   -0.257822    0.058228   -0.955930
siesta:      9   -0.067675   -0.119155    0.953437
siesta:     10    0.104083    0.022852    0.843034
siesta:     11    0.005390    0.024688   -0.083389
siesta:     12    0.009096    0.079020   -0.083687
siesta:     13   -0.480655   -0.036608    0.077711
siesta:     14   -0.332528   -0.011643    0.318964
siesta:     15   -0.397933   -0.052271   -0.808121
siesta:     16   -0.273938   -0.002462   -1.009814
siesta:     17    0.039599    0.072637    0.819017
siesta:     18   -0.092728    0.086684    0.892216
siesta:     19    0.021226    0.012931   -0.064393
siesta:     20   -0.013432    0.039377   -0.074907
siesta:     21   -0.505523   -0.017955    0.011540
siesta:     22   -0.219756   -0.020876    0.285784
siesta:     23   -0.389031   -0.035415   -0.739289
siesta:     24   -0.258929    0.015436   -1.013172
siesta:     25   -0.026945   -0.048209    1.095396
siesta:     26    0.065029    0.086158    1.030987
siesta:     27    0.049803    0.054755   -0.074990
siesta:     28   -0.002469   -0.020243   -0.039151
siesta:     29   -0.531937    0.071812    0.047314
siesta:     30   -0.275343    0.603247   -0.247421
siesta:     31   -0.411117   -0.131447   -0.799533
siesta:     32   -0.235666    0.531707   -0.885007
siesta:     33   -0.029065   -0.103664    0.983942
siesta:     34   -0.000009   -0.080332    0.841627
siesta:     35    0.003415    0.055532   -0.116264
siesta:     36   -0.001305    0.038787   -0.070259
siesta:     37   -0.021866   -0.586568    0.254451
siesta:     38    0.011506   -0.019692    0.419552
siesta:     39    0.004498   -0.517889   -0.491248
siesta:     40    0.025817    0.067654   -1.015119
siesta:     41    0.016804    0.062099    0.867185
siesta:     42    0.027773   -0.141211    1.057933
siesta:     43   -0.008691    0.088045   -0.080572
siesta:     44    0.025113    0.026712   -0.077662
siesta:     45   -0.015926   -0.081476    0.356150
siesta:     46   -0.002243   -0.041221    0.342541
siesta:     47   -0.018670   -0.050424   -1.146641
siesta:     48    0.029128    0.004654   -1.050491
siesta:     49    0.040881   -0.023181    0.926993
siesta:     50   -0.026936   -0.054556    0.843739
siesta:     51   -0.032709    0.088985   -0.061229
siesta:     52    0.025462    0.036060   -0.063754
siesta:     53    0.003614   -0.018920    0.435895
siesta:     54   -0.003924   -0.010900    0.432958
siesta:     55   -0.007484    0.018388   -1.033418
siesta:     56    0.024487    0.045282   -1.082593
siesta:     57   -0.033246    0.018846    0.960438
siesta:     58   -0.081469   -0.091723    1.004149
siesta:     59   -0.033913    0.096815   -0.067946
siesta:     60    0.017289    0.009623   -0.041265
siesta:     61    0.051214   -0.008501    0.329487
siesta:     62    0.034547    0.568253   -0.250546
siesta:     63    0.005585   -0.100369   -1.102158
siesta:     64    0.025640    0.533186   -0.953571
siesta:     65   -0.020301   -0.049899    0.869856
siesta:     66    0.123937    0.076535    0.893645
siesta:     67   -0.012185   -0.022094   -0.148073
siesta:     68    0.006440    0.028113   -0.044205
siesta:     69    0.000331   -0.604541    0.245302
siesta:     70   -0.056766   -0.054537    0.380299
siesta:     71   -0.016529   -0.509551   -0.466561
siesta:     72   -0.014309    0.035381   -1.011713
siesta:     73    0.042834   -0.060217    1.015906
siesta:     74   -0.062275    0.017320    1.026432
siesta:     75   -0.052613    0.031418   -0.085230
siesta:     76    0.034658    0.101293   -0.070263
siesta:     77   -0.066874   -0.051164    0.326354
siesta:     78    0.022761   -0.044737    0.407612
siesta:     79   -0.018178   -0.030905   -1.135676
siesta:     80   -0.012162   -0.016237   -1.056584
siesta:     81   -0.025260   -0.116269    0.980362
siesta:     82    0.062252    0.079180    0.868705
siesta:     83   -0.009644   -0.013714   -0.096848
siesta:     84    0.039326    0.051137   -0.077120
siesta:     85   -0.012550    0.006492    0.430982
siesta:     86   -0.052152    0.033417    0.415489
siesta:     87   -0.014011    0.021927   -1.047073
siesta:     88   -0.024502    0.011834   -1.101269
siesta:     89   -0.021313    0.030702    0.845868
siesta:     90   -0.077632    0.055000    0.806402
siesta:     91    0.011202    0.041578   -0.101601
siesta:     92    0.000997   -0.026539   -0.026800
siesta:     93    0.007150   -0.011665    0.389371
siesta:     94    0.044876    0.582826   -0.169292
siesta:     95   -0.003202   -0.097261   -1.152915
siesta:     96   -0.003633    0.490369   -0.980864
siesta:     97   -0.019518    0.108645    0.772894
siesta:     98   -0.129847   -0.086599    1.039754
siesta:     99    0.004464    0.022456   -0.132524
siesta:    100   -0.009649    0.042773   -0.054101
siesta:    101    0.277000   -0.632128    0.072674
siesta:    102    0.497314    0.042043    0.027767
siesta:    103    0.213249   -0.502495   -0.412505
siesta:    104    0.406376    0.028855   -0.679155
siesta:    105    0.046059   -0.026714    1.097891
siesta:    106   -0.088241   -0.200241    0.910273
siesta:    107    0.027903    0.090074   -0.099114
siesta:    108   -0.041708    0.046154   -0.052272
siesta:    109    0.335523   -0.020393    0.269422
siesta:    110    0.508601   -0.015027    0.029835
siesta:    111    0.273877   -0.012897   -1.055405
siesta:    112    0.425897   -0.036498   -0.775090
siesta:    113   -0.034828    0.008289    0.893019
siesta:    114    0.074021   -0.052607    1.084401
siesta:    115    0.007609    0.068703   -0.075829
siesta:    116   -0.031356    0.053976   -0.060924
siesta:    117    0.300678   -0.011564    0.282290
siesta:    118    0.494603    0.054061    0.001884
siesta:    119    0.253531    0.024104   -0.963253
siesta:    120    0.415129    0.001043   -0.737664
siesta:    121    0.089806   -0.073156    0.926758
siesta:    122    0.077113   -0.139953    0.885604
siesta:    123   -0.006394    0.111576   -0.087321
siesta:    124   -0.018103    0.011132   -0.033104
siesta:    125    0.266901    0.019201    0.323734
siesta:    126    0.345824    0.459694   -0.443252
siesta:    127    0.250469   -0.051387   -1.031248
siesta:    128    0.321502    0.365593   -0.690520
siesta:    129   -1.071873   -0.130320   -0.061131
siesta:    130   -0.219625   -1.041096   -0.118131
siesta:    131   -0.121810   -0.128475   -0.033105
siesta:    132   -0.053979   -0.134336    0.028773
siesta:    133    1.069408   -0.160826   -0.248207
siesta:    134   -0.224146   -1.679371   -0.168346
siesta:    135   -0.023802    1.168892   -0.242139
siesta:    136   -1.548409    0.076726   -0.166277
siesta:    137   -0.902947    0.325383   -0.353514
siesta:    138    0.206982   -0.906903   -0.263233
siesta:    139   -4.336076   -0.396515    0.301669
siesta:    140   -0.619181   -4.204075    0.254547
siesta:    141    0.342419    1.053229    0.003955
siesta:    142    1.117733    0.043157    0.024105
siesta:    143    0.032460    0.140792   -0.130971
siesta:    144    0.155628    0.165643    0.038374
siesta:    145   -0.006177   -1.098705   -0.359147
siesta:    146    1.623804   -0.130780   -0.201003
siesta:    147   -1.160103    0.207456   -0.350714
siesta:    148    0.124017    1.695517   -0.297484
siesta:    149   -0.138657    0.868657   -0.258490
siesta:    150    0.844979   -0.253419   -0.298820
siesta:    151    0.667433    4.084035    0.225614
siesta:    152    4.338078    0.332641    0.350226
siesta:    153    0.239406   -1.031230   -0.142689
siesta:    154    1.047234   -0.124937   -0.097106
siesta:    155    0.129245   -0.122912   -0.006605
siesta:    156    0.078014   -0.107205   -0.001436
siesta:    157    0.029747    1.160683   -0.232111
siesta:    158    1.544576    0.147701   -0.219446
siesta:    159   -1.103533   -0.127797   -0.250969
siesta:    160    0.260340   -1.728855   -0.196934
siesta:    161   -0.180503   -0.931435   -0.235446
siesta:    162    0.924406    0.330509   -0.296417
siesta:    163    0.676375   -4.155675    0.300250
siesta:    164    4.280640   -0.361528    0.354769
siesta:    165   -1.138433    0.092509    0.024769
siesta:    166   -0.281715    1.033959   -0.008575
siesta:    167   -0.038977    0.115042   -0.127768
siesta:    168   -0.189618    0.162884    0.070413
siesta:    169    1.174983    0.143275   -0.303650
siesta:    170   -0.215327    1.715543   -0.269609
siesta:    171   -0.005416   -1.065160   -0.358400
siesta:    172   -1.614789   -0.166628   -0.203110
siesta:    173   -0.813862   -0.251844   -0.302183
siesta:    174    0.134079    0.932429   -0.265464
siesta:    175   -4.376627    0.306871    0.339348
siesta:    176   -0.639489    4.039780    0.286459
siesta:    177    2.132514    1.981508    0.003807
siesta:    178   -1.165291    7.852992   -0.204026
siesta:    179    7.651661   -2.194486   -0.338228
siesta:    180   -2.191814   -1.873307   -0.015733
siesta:    181   -7.673611    1.955793   -0.289264
siesta:    182    1.234021   -7.772303   -0.368704
siesta:    183   -2.192896    1.978679   -0.010584
siesta:    184   -7.568342   -2.178171   -0.455863
siesta:    185    0.841758    7.910483   -0.243456
siesta:    186    2.295482   -1.886061    0.015015
siesta:    187   -0.936344   -7.845703   -0.448518
siesta:    188    7.790112    1.989278   -0.277546
siesta:    189   -0.751941    3.542999    0.144262
siesta:    190    3.361779   -1.224433    0.127487
siesta:    191   -3.216739    1.409284    0.118692
siesta:    192    0.824313   -3.214007    0.142645
siesta:    193   -3.430667    1.236034    0.142219
siesta:    194    0.718186   -3.510844    0.172291
siesta:    195   -0.810671    3.183878    0.181750
siesta:    196    3.218597   -1.371864    0.164601
siesta:    197   -3.377222   -1.286070    0.141714
siesta:    198    0.689798    3.519953    0.160243
siesta:    199   -0.800376   -3.239297    0.149124
siesta:    200    3.186756    1.396242    0.130035
siesta:    201   -0.694655   -3.525177    0.155381
siesta:    202    3.436697    1.292702    0.139780
siesta:    203   -3.230837   -1.406893    0.128311
siesta:    204    0.792734    3.167976    0.184497
siesta: ----------------------------------------
siesta:    Tot    0.175547   -0.295439   -0.157063

siesta: Stress tensor (static) (eV/Ang**3):
siesta:    -0.020396    0.000004   -0.000015
siesta:     0.000004   -0.022248   -0.000131
siesta:    -0.000015   -0.000131   -0.013575

siesta: Cell volume =      12163.208982 Ang**3

siesta: Pressure (static):
siesta:                Solid            Molecule  Units
siesta:           0.00020410          0.00015339  Ry/Bohr**3
siesta:           0.01874011          0.01408344  eV/Ang**3
siesta:          30.02528310         22.56439836  kBar
(Free)E+ p_basis*V_orbitals  =     -128634.418811
(Free)Eharris+ p_basis*V_orbitals  =     -128634.418816

siesta: Electric dipole (a.u.)  =    0.000000    0.000000  -12.225801
siesta: Electric dipole (Debye) =    0.000000    0.000000  -31.074908

cite: Please see "ptcda-au.bib" for an exhaustive BiBTeX file.
cite: Please clearly indicate Siesta version in published work: v4.1-b4-351
cite: This calculation has made use of the following articles
cite: which are encouraged to be cited in a published work.
        Primary SIESTA paper
          DOI: www.doi.org/10.1088/0953-8984/14/11/302

>> End of run:  22-JAN-2021  23:22:33
Job completed
[1611354153.571914] [n-62-21-35:21409:0]          mpool.c:42   UCX  WARN  object 0x3669540 was not returned to mpool ucp_requests
[1611354153.573484] [n-62-21-35:21417:0]          mpool.c:42   UCX  WARN  object 0x2a79700 was not returned to mpool ucp_requests
[1611354153.574515] [n-62-21-35:21415:0]          mpool.c:42   UCX  WARN  object 0x394ee40 was not returned to mpool ucp_requests
[1611354153.575865] [n-62-21-35:21411:0]          mpool.c:42   UCX  WARN  object 0x29ede40 was not returned to mpool ucp_requests
