Siesta Version  : v4.1-b4-351
Architecture    : x86_64-linux-n-62-26-19
Compiler version: GNU Fortran (GCC) 9.3.0
Compiler flags  : mpifort -m64 -fPIC -O3 -march=native -ftree-vectorize -fexpensive-optimizatioons -funroll-loops -fprefetch-loop-arrays -fno-second-underscore  -flto
PP flags        : -I/dtu/sw/dcc/SL73/2020-aug/generic/build-tools/1.0/include -I/dtu/sw/dcc/SL773/2020-aug/generic/gcc/9.3.0/include -I/dtu/sw/dcc/SL73/2020-aug/generic/gcc/9.3.0/include -I/dtu/sw/dcc/SL73/2020-aug/XeonE5-2660v3/gnu/9.3.0/zlib/1.2.11/include -I/dtu/sw/dcc/SL73/2020-aug/generic/numactl/2.0.12/include -I/dtu/sw/dcc/SL73/2020-aug/XeonE5-2660v3/gnu/9.3.0/libxml2/2.9.10/include -I/dtu/sw/dcc/SL73/2020-aug/XeonE5-2660v3/gnu/9.3.0/hwloc/2.2.0/include -I/dtu/sw/dcc/SL73/2020-aug/XeonE5-2660v3/gnu/9.3.0/knem/1.1.4/include -I/dtu/sw/dcc/SL73/2020-aug/XeonE5-2660v3/gnu/9.3.0/ucx/1.8.1/include -I/dtu/sw/dcc/SL73/2020-aug/XeonE5-2660v3/gnu/9.3.0/openmpi/4.0.4/include -I/dtu/sw/dcc/SL73/2020-aug/XeonE5-2660v3/gnu/9.3.0/szip/2.1.1/include -I/dtu/sw/dcc/SL73/2020-aug/XeonE5-2660v3/gnu/9.3.0/hdf5/1.12.0/include -I/dtu/sw/dcc/SL73/2020-aug/XeonE5-2660v3/gnu/9.3.0/pnetcdf/1.12.1/include -I/dtu/sw/dcc/SL73/2020-aug/generic/gen-zlib/1.2.11/include -I/dtu/sw/dcc/SL73/2020-aug/generic/openssl/1.1.1/include -I/dtu/sw/dcc/SL73/2020-aug/generic/libssh2/1.8.2/include -I/dtu/sw/dcc/SL73/2020-aug/generic/curl/7.65.1/include -I/dtu/sw/dcc/SL73/2020-aug/XeonE5-2660v3/gnu/9.3.0/netcdf/4.7.4/include -I/dtu/sw/dcc/SL73/2020-aug/XeonE5-2660v3/gnu/9.3.0/flook/0.8.1/include -I/dtu/sw/dcc/SL73/2020-aug/XeonE5-2660v3/gnu/9.3.0/fftw/3.3.8/include -I/dtu/sw/dcc/SL73/2020-aug/XeonE5-2660v3/gnu/9.3.0/parmetis/4.0.3/include -I/dtu/sw/dcc/SL73/2020-aug/XeonE5-2660v3/gnu/9.3.0/scalapack/2.1.0/include -I/dtu/sw/dcc/SL73/2020-aug/XeonE5-2660v3/gnu/9.3.0/lapack/3.9.0/include -I/dtu/sw/dcc/SL73/2020-aug/XeonE5-2660v3/gnu/9.3.0/blis/0.7.0/include -I/dtu/sw/dcc/SL73/2020-aug/XeonE5-2660v3/gnu/9.3.0/scotch/6.0.9/include -I/dtu/sw/dcc/SL73/2020-aug/XeonE5-2660v3/gnu/9.3.0/mumps/5.3.3/include -I/dtu/sw/dcc/SL73/2020-aug/XeonE5-2660v3/gnu/9.3.0/elpa/2020.05.001/include -DSIESTA__ELPA -DMPI -DFC_HAVE_FLUSH -DFC_HAVE_ABORT -DCDF -DCDF4 -DSIESTA__FLOOK  -DNCDF -DNCDF_4 -DNCDF_PARALLEL -DTS_NOCHECKS -DSIESTA__METIS -DSIESTA__MUMPS -DSIESTA__MRRR -I/dtu/sw/dcc/SL73/2020-aug/XeonE5-2660v3/gnu/9.3.0/elpa/2020.05.001/include/elpa
Libraries       : libncdf.a libfdict.a -lnetcdff -lnetcdf -lpnetcdf -lhdf5_hl -lhdf5 -lz  -lzmuumps -lmumps_common -lesmumps -lscotch -lscotcherr -lpord -lparmetis -lmetis -lelpa -lscalapack -llapack -lblis  -L/dtu/sw/dcc/SL73/2020-aug/XeonE5-2660v3/gnu/9.3.0/flook/0.8.1/lib -Wl,-rpath=/dtu/sw/dcc/SL73/2020-aug/XeonE5-2660v3/gnu/9.3.0/flook/0.8.1/lib -lflookall -ldl  -flto -fuse-linker-plugin  -lmetis
PARALLEL version
NetCDF support
NetCDF-4 support
NetCDF-4 MPI-IO support
METIS ordering support
Lua support

* Running on 8 nodes in parallel
>> Start of run:  22-JAN-2021  23:22:34

                           ***********************       
                           *  WELCOME TO SIESTA  *       
                           ***********************       

reinit: Reading from ../scfmix.fdf

reinit: -----------------------------------------------------------------------
reinit: System Name: Linear Fe3 cluster.
reinit: -----------------------------------------------------------------------
reinit: System Label: scfmix
reinit: -----------------------------------------------------------------------
Deprecated spin keyword overridden by new-style 'Spin' input
Option from deprecated keyword: non-collinear
Option from 'Spin' keyword input: non-collinear

initatom: Reading input for the pseudopotentials and atomic orbitals ----------
Species number:   1 Atomic number:   26 Label: fe_nc

Ground state valence configuration:   4s02  3d06
Reading pseudopotential information in formatted form from fe_nc.psf

Valence configuration for pseudopotential generation:
4s( 1.00) rc: 2.00
4p( 0.00) rc: 2.00
3d( 7.00) rc: 2.00
4f( 0.00) rc: 2.00
For fe_nc, standard SIESTA heuristics set lmxkb to 3
 (one more than the basis l, including polarization orbitals).
Use PS.lmax or PS.KBprojectors blocks to override.
fe_nc: nkbl increased for l=1 due to the presence of a polarization orbital

<basis_specs>
===============================================================================
fe_nc                Z=  26    Mass=  55.850        Charge= 0.17977+309
Lmxo=2 Lmxkb= 3    BasisType=split      Semic=F
L=0  Nsemic=0  Cnfigmx=4
          i=1  nzeta=2  polorb=1  (4s)
            splnorm:   0.15000    
               vcte:    0.0000    
               rinn:    0.0000    
               qcoe:    0.0000    
               qyuk:    0.0000    
               qwid:   0.10000E-01
                rcs:    0.0000      0.0000    
            lambdas:    1.0000      1.0000    
L=1  Nsemic=0  Cnfigmx=4
L=2  Nsemic=0  Cnfigmx=3
          i=1  nzeta=2  polorb=0  (3d)
            splnorm:   0.15000    
               vcte:    0.0000    
               rinn:    0.0000    
               qcoe:    0.0000    
               qyuk:    0.0000    
               qwid:   0.10000E-01
                rcs:    0.0000      0.0000    
            lambdas:    1.0000      1.0000    
-------------------------------------------------------------------------------
L=0  Nkbl=1  erefs: 0.17977+309
L=1  Nkbl=2  erefs: 0.17977+309 0.17977+309
L=2  Nkbl=1  erefs: 0.17977+309
L=3  Nkbl=1  erefs: 0.17977+309
===============================================================================
</basis_specs>

atom: Called for fe_nc                 (Z =  26)

read_vps: Pseudopotential generation method:
read_vps: ATM3      Troullier-Martins                       
Valence charge for ps generation:    8.00000

read_vps: Pseudopotential includes a core correction:
read_vps: Pseudo-core for xc-correction

xc_check: Exchange-correlation functional:
xc_check: Ceperley-Alder
V l=0 = -2*Zval/r beyond r=  2.8345
V l=1 = -2*Zval/r beyond r=  2.8345
V l=2 = -2*Zval/r beyond r=  2.8345
V l=3 = -2*Zval/r beyond r=  2.8345
All V_l potentials equal beyond r=  1.9726
This should be close to max(r_c) in ps generation
All pots = -2*Zval/r beyond r=  2.8345
Using large-core scheme for Vlocal

atom: Estimated core radius    2.83451
atom: Maximum radius for 4*pi*r*r*local-pseudopot. charge    3.13263
atom: Maximum radius for r*vlocal+2*Zval:    2.87017
GHOST: No ghost state for L =  0
KBgen: More than one KB projector for l=  1
KBgen: ghost states analysis will be not performed
GHOST: No ghost state for L =  2
GHOST: No ghost state for L =  3

KBgen: Kleinman-Bylander projectors: 
   l= 0   rc=  2.047986   el= -0.319855   Ekb=  3.923406   kbcos=  0.252820
   l= 1   rc=  2.047986   el= -0.070931   Ekb=  3.313875   kbcos=  0.157841
   l= 1   rc=  2.047986   el=  0.001457   Ekb=  6.640675   kbcos=  0.001631
   l= 2   rc=  2.022544   el= -0.307264   Ekb=-12.478630   kbcos= -0.654791
   l= 3   rc=  2.047986   el=  0.003534   Ekb= -1.656634   kbcos= -0.005966

KBgen: Total number of  Kleinman-Bylander projectors:   19
atom: -------------------------------------------------------------------------

atom: SANKEY-TYPE ORBITALS:
atom: Selected multiple-zeta basis: split     

SPLIT: Orbitals with angular momentum L= 0

SPLIT: Basis orbitals for state 4s

SPLIT: PAO cut-off radius determined from an
SPLIT: energy shift=  0.020000 Ry

   izeta = 1
                 lambda =    1.000000
                     rc =    6.799774
                 energy =   -0.302238
                kinetic =    0.298810
    potential(screened) =   -0.601048
       potential(ionic) =   -5.818758

   izeta = 2
                 rmatch =    6.468141
              splitnorm =    0.150000
                 energy =   -0.257217
                kinetic =    0.445909
    potential(screened) =   -0.703126
       potential(ionic) =   -6.273620

SPLIT: Orbitals with angular momentum L= 2

SPLIT: Basis orbitals for state 3d

SPLIT: PAO cut-off radius determined from an
SPLIT: energy shift=  0.020000 Ry

   izeta = 1
                 lambda =    1.000000
                     rc =    4.022404
                 energy =   -0.287031
                kinetic =    8.952870
    potential(screened) =   -9.239901
       potential(ionic) =  -18.247427

   izeta = 2
                 rmatch =    2.291856
              splitnorm =    0.150000
                 energy =    0.070417
                kinetic =   12.282791
    potential(screened) =  -12.212374
       potential(ionic) =  -21.929746

POLgen: Perturbative polarization orbital with L=  1

POLgen: Polarization orbital for state 4s

   izeta = 1
                     rc =    6.799774
                 energy =   -0.003154
                kinetic =    0.566601
    potential(screened) =   -0.569755
       potential(ionic) =   -5.393577
atom: Total number of Sankey-type orbitals: 15

atm_pop: Valence configuration (for local Pseudopot. screening):
 4s( 2.00)                                                            
 4p( 0.00)                                                            
 3d( 6.00)                                                            
Vna: chval, zval:    8.00000   8.00000

Vna:  Cut-off radius for the neutral-atom potential:   6.799774
comcore: Pseudo-core radius Rcore=  3.874354

atom: _________________________________________________________________________

prinput: Basis input ----------------------------------------------------------

PAO.BasisType split     

%block ChemicalSpeciesLabel
    1   26 fe_nc                   # Species index, atomic number, species label
%endblock ChemicalSpeciesLabel

%block PAO.Basis                 # Define Basis set
fe_nc                 2                    # Species label, number of l-shells
 n=4   0   2 P   1                   # n, l, Nzeta, Polarization, NzetaPol
   6.800      6.468   
   1.000      1.000   
 n=3   2   2                         # n, l, Nzeta 
   4.022      2.292   
   1.000      1.000   
%endblock PAO.Basis

prinput: ----------------------------------------------------------------------

Dumping basis to NetCDF file fe_nc.ion.nc
coor:   Atomic-coordinates input format  =     Cartesian coordinates
coor:                                            (in Bohr units)

siesta: Atomic coordinates (Bohr) and species
siesta:      0.00000   0.00000   3.64400  1        1
siesta:      0.00000   0.00000   0.00000  1        2
siesta:      0.00000   0.00000  -3.64400  1        3

siesta: System type = bulk      

initatomlists: Number of atoms, orbitals, and projectors:      3    45    57

siesta: ******************** Simulation parameters ****************************
siesta:
siesta: The following are some of the parameters of the simulation.
siesta: A complete list of the parameters used, including default values,
siesta: can be found in file out.fdf
siesta:
redata: Spin configuration                          = non-collinear
redata: Number of spin components                   = 4
redata: Time-Reversal Symmetry                      = F
redata: Spin spiral                                 = F
redata: Long output                                 =   F
redata: Number of Atomic Species                    =        1
redata: Charge density info will appear in .RHO file
redata: Write Mulliken Pop.                         = Atomic and Orbital charges
redata: Matel table size (NRTAB)                    =     1024
redata: Mesh Cutoff                                 =   150.0000 Ry
redata: Net charge of the system                    =     0.0000 |e|
redata: Min. number of SCF Iter                     =        0
redata: Max. number of SCF Iter                     =     1000
redata: SCF convergence failure will abort job
redata: SCF mix quantity                            = Hamiltonian
redata: Mix DM or H after convergence               =   F
redata: Recompute H after scf cycle                 =   F
redata: Mix DM in first SCF step                    =   T
redata: Write Pulay info on disk                    =   F
redata: New DM Occupancy tolerance                  = 0.000000000001
redata: No kicks to SCF
redata: DM Mixing Weight for Kicks                  =     0.5000
redata: Require Harris convergence for SCF          =   F
redata: Harris energy tolerance for SCF             =     0.000100 eV
redata: Require DM convergence for SCF              =   T
redata: DM tolerance for SCF                        =     0.000100
redata: Require EDM convergence for SCF             =   F
redata: EDM tolerance for SCF                       =     0.001000 eV
redata: Require H convergence for SCF               =   T
redata: Hamiltonian tolerance for SCF               =     0.001000 eV
redata: Require (free) Energy convergence for SCF   =   F
redata: (free) Energy tolerance for SCF             =     0.000100 eV
redata: Using Saved Data (generic)                  =   F
redata: Use continuation files for DM               =   T
redata: Neglect nonoverlap interactions             =   F
redata: Method of Calculation                       = Diagonalization
redata: Electronic Temperature                      =  1160.4438 K
redata: Fix the spin of the system                  =   F
redata: Dynamics option                             = Single-point calculation
mix.SCF: Debug messages                          = T
mix.SCF: Linear mixing                           = linear-before
mix.SCF:    Mixing weight                        =     0.010000
mix.SCF:    Carried history steps                = 2
mix.SCF:    Number of mixing iterations          = 2
mix.SCF:    Following mixer                      = pulay
mix.SCF: Pulay mixing                            = pulay
mix.SCF:    Variant                              = stable
mix.SCF:    History steps                        = 2
mix.SCF:    Linear mixing weight                 =     0.010000
mix.SCF:    Mixing weight                        =     0.010000
mix.SCF:    SVD condition                        = 0.1000E-07
mix.SCF:    Restart steps                        = 2
mix.SCF:    Restart save steps                   = 1
mix.SCF:    Number of mixing iterations          = 10
mix.SCF:    Following mixer                      = kick
mix.SCF:    Following mixer upon convergence     = linear-after
mix.SCF: Broyden mixing                          = broyden
mix.SCF:    History steps                        = 2
mix.SCF:    Linear mixing weight                 =     0.010000
mix.SCF:    Inverse Jacobian weight              =     0.010000
mix.SCF:    Weight prime                         =     0.010000
mix.SCF:    SVD condition                        = 0.1000E-07
mix.SCF:    Restart steps                        = 2
mix.SCF:    Restart save steps                   = 1
mix.SCF:    Number of mixing iterations          = 10
mix.SCF:    Following mixer                      = kick
mix.SCF:    Following mixer upon convergence     = linear-after
mix.SCF: Linear mixing                           = linear-after
mix.SCF:    Mixing weight                        =     0.025000
mix.SCF: Linear mixing                           = kick
mix.SCF:    Mixing weight                        =     0.100000
mix.SCF:    Number of mixing iterations          = 1
mix.SCF:    Following mixer                      = broyden
mix.SCF: Spin-component mixing                   all
redata: Save all siesta data in one NC              =   F
redata: ***********************************************************************

%block SCF.Mixers
  linear-before
  pulay
  broyden
  linear-after
  kick
%endblock SCF.Mixers

%block SCF.Mixer.linear-before
  # Mixing method
  method linear

  # Mixing options
  weight 0.0100
  history 2

  # Continuation options
  iterations 2
  next pulay
%endblock SCF.Mixer.linear-before

%block SCF.Mixer.pulay
  # Mixing method
  method pulay
  variant stable

  # Mixing options
  weight 0.0100
  weight.linear 0.0100
  history 2
  restart 2
  restart.save 1

  # Continuation options
  iterations 10
  next kick
  next.conv linear-after
%endblock SCF.Mixer.pulay

%block SCF.Mixer.broyden
  # Mixing method
  method broyden

  # Mixing options
  weight 0.0100
  weight.linear 0.0100
  weight.prime 0.0100
  history 2
  restart 2
  restart.save 1

  # Continuation options
  iterations 10
  next kick
  next.conv linear-after
%endblock SCF.Mixer.broyden

%block SCF.Mixer.linear-after
  # Mixing method
  method linear

  # Mixing options
  weight 0.0250
%endblock SCF.Mixer.linear-after

%block SCF.Mixer.kick
  # Mixing method
  method linear

  # Mixing options
  weight 0.1000

  # Continuation options
  iterations 1
  next broyden
%endblock SCF.Mixer.kick

DM_history_depth set to one: no extrapolation allowed by default for geometry relaxation
Size of DM history Fstack: 1
Total number of electrons:    24.000000
Total ionic charge:    24.000000

* ProcessorY, Blocksize:    2   6


* Orbital distribution balance (max,min):     6     3


Time-reversal symmetry not used.

siesta: k-grid: Number of k-points =     1
siesta: k-grid: Cutoff (effective) =     3.175 Ang
siesta: k-grid: Supercell and displacements
siesta: k-grid:    1   0   0      0.000
siesta: k-grid:    0   1   0      0.000
siesta: k-grid:    0   0   1      0.000

diag: Algorithm                                     = D&C
diag: Parallel over k                               =   F
diag: Use parallel 2D distribution                  =   T
diag: Parallel block-size                           = 6
diag: Parallel distribution                         =     2 x     4
diag: Used triangular part                          = Lower
diag: Absolute tolerance                            =  0.100E-15
diag: Orthogonalization factor                      =  0.100E-05
diag: Memory factor                                 =  1.0000


ts: **************************************************************
ts: Save H and S matrices                           =    F
ts: Save DM and EDM matrices                        =    F
ts: Only save the overlap matrix S                  =    F
ts: **************************************************************

************************ Begin: TS CHECKS AND WARNINGS ************************
************************ End: TS CHECKS AND WARNINGS **************************


                     ====================================
                        Single-point calculation
                     ====================================

outcell: Unit cell vectors (Ang):
        6.350124    0.000000    0.000000
        0.000000    6.350124    0.000000
        0.000000    0.000000   10.583540

outcell: Cell vector modules (Ang)   :    6.350124    6.350124   10.583540
outcell: Cell angles (23,13,12) (deg):     90.0000     90.0000     90.0000
outcell: Cell volume (Ang**3)        :    426.7715
Gamma-point calculation with interaction between periodic images
Some features might not work optimally:
e.g. DM initialization from atomic data
<dSpData1D:S at geom step 0
  <sparsity:sparsity for geom step 0
    nrows_g=45 nrows=6 sparsity=.1333 nnzs=270, refcount: 7>
  <dData1D:(new from dSpData1D) n=270, refcount: 1>
refcount: 1>
new_DM -- step:     1
Initializing Density Matrix...

Attempting to read DM from file... Failed...
DM filled with atomic data (user-defined):
<dSpData2D:DM initialized from atoms
  <sparsity:sparsity for geom step 0
    nrows_g=45 nrows=6 sparsity=.1333 nnzs=270, refcount: 8>
  <dData2D:DM n=270 m=4, refcount: 1>
refcount: 1>
     spin moment: S , {S} =    1.50000   1.50000   0.00000   0.00000
No. of atoms with KB's overlaping orbs in proc 0. Max # of overlaps:       3      45
New grid distribution:   1
           1       1:   24    1:   12    1:   10
           2       1:   24    1:   12   11:   20
           3       1:   24    1:   12   21:   30
           4       1:   24    1:   12   31:   40
           5       1:   24   13:   24    1:   10
           6       1:   24   13:   24   11:   20
           7       1:   24   13:   24   21:   30
           8       1:   24   13:   24   31:   40

InitMesh: MESH =    48 x    48 x    80 =      184320
InitMesh: (bp) =    24 x    24 x    40 =       23040
InitMesh: Mesh cutoff (required, used) =   150.000   157.914 Ry
ExtMesh (bp) on 0 =    80 x    68 x    66 =      359040
New grid distribution:   2
           1      12:   24    1:   11    1:   15
           2       1:   11    1:   11    1:   15
           3      12:   24    1:   11   16:   40
           4       1:   11    1:   11   16:   40
           5      12:   24   12:   24    1:   15
           6       1:   11   12:   24    1:   15
           7      12:   24   12:   24   16:   40
           8       1:   11   12:   24   16:   40
New grid distribution:   3
           1       1:   12   13:   24   20:   40
           2      13:   24    1:   12    1:   19
           3      13:   24    1:   12   20:   40
           4      13:   24   13:   24    1:   19
           5       1:   12    1:   12   20:   40
           6       1:   12    1:   12    1:   19
           7      13:   24   13:   24   20:   40
           8       1:   12   13:   24    1:   19
Setting up quadratic distribution...
ExtMesh (bp) on 0 =    69 x    67 x    71 =      328233
PhiOnMesh: Number of (b)points on node 0 =                 2145
PhiOnMesh: nlist on node 0 =                25197

stepf: Fermi-Dirac step function

siesta: Program's energy decomposition (eV):
siesta: Ebs     =       296.552197
siesta: Eions   =      2141.484345
siesta: Ena     =        95.469235
siesta: Ekin    =      2894.135049
siesta: Enl     =     -1845.643791
siesta: Eso     =         0.000000
siesta: Edftu   =         0.000000
siesta: DEna    =      -119.991632
siesta: DUscf   =        64.250494
siesta: DUext   =         0.000000
siesta: Exc     =     -1226.471890
siesta: eta*DQ  =         0.000000
siesta: Emadel  =         0.000000
siesta: Emeta   =         0.000000
siesta: Emolmec =         0.000000
siesta: Ekinion =         0.000000
siesta: Eharris =     -2188.621529
siesta: Etot    =     -2279.736880
siesta: FreeEng =     -2280.290972

        iscf     Eharris(eV)        E_KS(eV)     FreeEng(eV)     dDmax    Ef(eV) dHmax(eV)
   scf:    1    -2188.621529    -2279.736880    -2280.290972  0.981529 -7.983581 45.033840
     spin moment: S , {S} =    1.52577   1.52577   0.00000  -0.00000
mix (1): linear
mix (2): linear
mix (3): linear
mix (4): linear
mix (5): linear
mix (6): linear
mix (7): linear
mix (1): next%n_hist = 1 / 2
mix (2): next%n_hist = 1 / 2
mix (3): next%n_hist = 1 / 2
mix (4): next%n_hist = 1 / 2
mix (4): alpha = 0.1000E-01
mix (5): next%n_hist = 1 / 2
mix (6): next%n_hist = 1 / 2
mix (7): next%n_hist = 1 / 2
mix (1): alpha = 0.1000E-01
mix (2): alpha = 0.1000E-01
mix (3): alpha = 0.1000E-01
mix (6): alpha = 0.1000E-01
mix (7): alpha = 0.1000E-01
mix (5): alpha = 0.1000E-01
mix (0): linear
mix (0): next%n_hist = 1 / 2
mix (0): alpha = 0.1000E-01
timer: Routine,Calls,Time,% = IterSCF        1       0.107   7.73
   scf:    2    -2292.402970    -2286.252687    -2286.801094  0.043504 -7.833504 41.185476
     spin moment: S , {S} =    1.58342   1.58342   0.00000   0.00000
mix (3): linear
mix (1): linear
mix (2): linear
mix (4): linear
mix (7): linear
mix (5): linear
mix (5): next%n_hist = 1 / 2
mix (6): linear
mix (6): next%n_hist = 1 / 2
mix (3): next%n_hist = 1 / 2
mix (3): alpha = 0.1000E-01
mix (1): next%n_hist = 1 / 2
mix (1): alpha = 0.1000E-01
mix (2): next%n_hist = 1 / 2
mix (2): alpha = 0.1000E-01
mix (4): next%n_hist = 1 / 2
mix (4): alpha = 0.1000E-01
mix (7): next%n_hist = 1 / 2
mix (7): alpha = 0.1000E-01
mix (5): alpha = 0.1000E-01
mix (6): alpha = 0.1000E-01
mix (0): linear
mix (0): next%n_hist = 1 / 2
mix (0): alpha = 0.1000E-01
mix (0): switching mixer --> pulay
   scf:    3    -2297.587454    -2292.086088    -2292.625691  0.033123 -7.684543 37.445086
     spin moment: S , {S} =    1.58308   1.58308   0.00000   0.00000
mix (4): Pulay
mix (3): Pulay
mix (1): Pulay
mix (2): Pulay
mix (6): Pulay
mix (7): Pulay
mix (5): Pulay
mix (4): n_hist = 2 / 2
mix (3): n_hist = 2 / 2
mix (1): n_hist = 2 / 2
mix (2): n_hist = 2 / 2
mix (6): n_hist = 2 / 2
mix (7): n_hist = 2 / 2
mix (5): n_hist = 2 / 2
mix (0): Pulay
mix (0): n_hist = 2 / 2
mix (1): G =   0.010000, sum(alpha) = 0.9499E+01, alpha =  0.9499E+01
mix (2): G =   0.010000, sum(alpha) = 0.9499E+01, alpha =  0.9499E+01
mix (4): G =   0.010000, sum(alpha) = 0.9499E+01, alpha =  0.9499E+01
mix (3): G =   0.010000, sum(alpha) = 0.9499E+01, alpha =  0.9499E+01
mix (0): G =   0.010000, sum(alpha) = 0.9499E+01, alpha =  0.9499E+01
mix (5): G =   0.010000, sum(alpha) = 0.9499E+01, alpha =  0.9499E+01
mix (6): G =   0.010000, sum(alpha) = 0.9499E+01, alpha =  0.9499E+01
mix (7): G =   0.010000, sum(alpha) = 0.9499E+01, alpha =  0.9499E+01
   scf:    4    -2125.898929    -2262.420725    -2262.570129  0.442105 -5.858479 30.704008
mix (3): Pulay
mix (3): n_hist = 2 / 2
mix (1): Pulay
mix (1): n_hist = 2 / 2
mix (5): Pulay
mix (5): n_hist = 2 / 2
mix (6): Pulay
mix (6): n_hist = 2 / 2
mix (2): Pulay
mix (2): n_hist = 2 / 2
mix (4): Pulay
mix (4): n_hist = 2 / 2
     spin moment: S , {S} =    2.35384   2.35384   0.00000  -0.00000
mix (7): Pulay
mix (7): n_hist = 2 / 2
mix (0): Pulay
mix (0): n_hist = 2 / 2
mix (4): G =   0.010000, sum(alpha) = -.5221E+00, alpha =  -.5221E+00
mix (4): saved hist = 1
mix (3): G =   0.010000, sum(alpha) = -.5221E+00, alpha =  -.5221E+00
mix (3): saved hist = 1
mix (1): G =   0.010000, sum(alpha) = -.5221E+00, alpha =  -.5221E+00
mix (1): saved hist = 1
mix (5): G =   0.010000, sum(alpha) = -.5221E+00, alpha =  -.5221E+00
mix (5): saved hist = 1
mix (6): G =   0.010000, sum(alpha) = -.5221E+00, alpha =  -.5221E+00
mix (6): saved hist = 1
mix (2): G =   0.010000, sum(alpha) = -.5221E+00, alpha =  -.5221E+00
mix (0): G =   0.010000, sum(alpha) = -.5221E+00, alpha =  -.5221E+00
mix: Pulay -- resetting history
mix (0): saved hist = 1
mix (7): G =   0.010000, sum(alpha) = -.5221E+00, alpha =  -.5221E+00
mix (7): saved hist = 1
mix (2): saved hist = 1
   scf:    5    -2323.101667    -2311.926315    -2312.286807  0.270682 -6.745246 19.123869
     spin moment: S , {S} =    1.78737   1.78737   0.00000   0.00000
mix (7): Pulay
mix (4): Pulay
mix (4): n_hist = 2 / 2
mix (3): Pulay
mix (3): n_hist = 2 / 2
mix (1): Pulay
mix (1): n_hist = 2 / 2
mix (5): Pulay
mix (0): Pulay
mix (0): n_hist = 2 / 2
mix (7): n_hist = 2 / 2
mix (6): Pulay
mix (5): n_hist = 2 / 2
mix (6): n_hist = 2 / 2
mix (2): Pulay
mix (2): n_hist = 2 / 2
mix (0): G =   0.010000, sum(alpha) = -.2492E-01, alpha =  -.2492E-01
mix (4): G =   0.010000, sum(alpha) = -.2492E-01, alpha =  -.2492E-01
mix (3): G =   0.010000, sum(alpha) = -.2492E-01, alpha =  -.2492E-01
mix (1): G =   0.010000, sum(alpha) = -.2492E-01, alpha =  -.2492E-01
mix (6): G =   0.010000, sum(alpha) = -.2492E-01, alpha =  -.2492E-01
mix (5): G =   0.010000, sum(alpha) = -.2492E-01, alpha =  -.2492E-01
mix (7): G =   0.010000, sum(alpha) = -.2492E-01, alpha =  -.2492E-01
mix (2): G =   0.010000, sum(alpha) = -.2492E-01, alpha =  -.2492E-01
   scf:    6    -2314.166827    -2313.105604    -2313.459891  0.019245 -6.586075 17.929397
     spin moment: S , {S} =    1.68648   1.68648   0.00000   0.00000
mix (1): Pulay
mix (1): n_hist = 2 / 2
mix (7): Pulay
mix (4): Pulay
mix (4): n_hist = 2 / 2
mix (3): Pulay
mix (3): n_hist = 2 / 2
mix (5): Pulay
mix (5): n_hist = 2 / 2
mix (0): Pulay
mix (0): n_hist = 2 / 2
mix (6): Pulay
mix (6): n_hist = 2 / 2
mix (7): n_hist = 2 / 2
mix (2): Pulay
mix (2): n_hist = 2 / 2
mix (0): G =   0.010000, sum(alpha) = 0.4996E+01, alpha =  0.4996E+01
mix: Pulay -- resetting history
mix (1): G =   0.010000, sum(alpha) = 0.4996E+01, alpha =  0.4996E+01
mix (1): saved hist = 1
mix (4): G =   0.010000, sum(alpha) = 0.4996E+01, alpha =  0.4996E+01
mix (4): saved hist = 1
mix (3): G =   0.010000, sum(alpha) = 0.4996E+01, alpha =  0.4996E+01
mix (3): saved hist = 1
mix (5): G =   0.010000, sum(alpha) = 0.4996E+01, alpha =  0.4996E+01
mix (0): saved hist = 1
mix (7): G =   0.010000, sum(alpha) = 0.4996E+01, alpha =  0.4996E+01
mix (7): saved hist = 1
mix (6): G =   0.010000, sum(alpha) = 0.4996E+01, alpha =  0.4996E+01
mix (6): saved hist = 1
mix (5): saved hist = 1
mix (2): G =   0.010000, sum(alpha) = 0.4996E+01, alpha =  0.4996E+01
mix (2): saved hist = 1
   scf:    7    -2317.043134    -2315.607330    -2315.969251  0.074216 -5.662513 15.257277
mix (3): Pulay
mix (2): Pulay
mix (1): Pulay
mix (4): Pulay
     spin moment: S , {S} =    1.44501   1.44501   0.00000   0.00000
mix (4): n_hist = 2 / 2
mix (5): Pulay
mix (6): Pulay
mix (3): n_hist = 2 / 2
mix (7): Pulay
mix (2): n_hist = 2 / 2
mix (1): n_hist = 2 / 2
mix (5): n_hist = 2 / 2
mix (6): n_hist = 2 / 2
mix (7): n_hist = 2 / 2
mix (0): Pulay
mix (0): n_hist = 2 / 2
mix (4): G =   0.010000, sum(alpha) = 0.1330E+01, alpha =  0.1330E+01
mix (1): G =   0.010000, sum(alpha) = 0.1330E+01, alpha =  0.1330E+01
mix (5): G =   0.010000, sum(alpha) = 0.1330E+01, alpha =  0.1330E+01
mix (3): G =   0.010000, sum(alpha) = 0.1330E+01, alpha =  0.1330E+01
mix (6): G =   0.010000, sum(alpha) = 0.1330E+01, alpha =  0.1330E+01
mix (2): G =   0.010000, sum(alpha) = 0.1330E+01, alpha =  0.1330E+01
mix (0): G =   0.010000, sum(alpha) = 0.1330E+01, alpha =  0.1330E+01
mix (7): G =   0.010000, sum(alpha) = 0.1330E+01, alpha =  0.1330E+01
   scf:    8    -2328.532021    -2324.134458    -2324.471691  0.302364 -4.506906 10.438418
     spin moment: S , {S} =    1.35232   1.35232   0.00000   0.00000
mix (2): Pulay
mix (2): n_hist = 2 / 2
mix (4): Pulay
mix (4): n_hist = 2 / 2
mix (6): Pulay
mix (0): Pulay
mix (7): Pulay
mix (7): n_hist = 2 / 2
mix (6): n_hist = 2 / 2
mix (5): Pulay
mix (5): n_hist = 2 / 2
mix (3): Pulay
mix (3): n_hist = 2 / 2
mix (0): n_hist = 2 / 2
mix (1): Pulay
mix (1): n_hist = 2 / 2
mix (3): G =   0.010000, sum(alpha) = 0.5351E+00, alpha =  0.5351E+00
mix (2): G =   0.010000, sum(alpha) = 0.5351E+00, alpha =  0.5351E+00
mix (0): G =   0.010000, sum(alpha) = 0.5351E+00, alpha =  0.5351E+00
mix: Pulay -- resetting history
mix (0): saved hist = 1
mix (4): G =   0.010000, sum(alpha) = 0.5351E+00, alpha =  0.5351E+00
mix (4): saved hist = 1
mix (7): G =   0.010000, sum(alpha) = 0.5351E+00, alpha =  0.5351E+00
mix (7): saved hist = 1
mix (3): saved hist = 1
mix (2): saved hist = 1
mix (6): G =   0.010000, sum(alpha) = 0.5351E+00, alpha =  0.5351E+00
mix (6): saved hist = 1
mix (5): G =   0.010000, sum(alpha) = 0.5351E+00, alpha =  0.5351E+00
mix (5): saved hist = 1
mix (1): G =   0.010000, sum(alpha) = 0.5351E+00, alpha =  0.5351E+00
mix (1): saved hist = 1
   scf:    9    -2327.887671    -2326.491754    -2326.656848  0.187998 -3.935778  4.262773
mix (4): Pulay
mix (4): n_hist = 2 / 2
mix (3): Pulay
mix (3): n_hist = 2 / 2
mix (2): Pulay
mix (2): n_hist = 2 / 2
mix (6): Pulay
mix (6): n_hist = 2 / 2
mix (1): Pulay
mix (1): n_hist = 2 / 2
     spin moment: S , {S} =    1.37315   1.37315   0.00000   0.00000
mix (5): Pulay
mix (5): n_hist = 2 / 2
mix (7): Pulay
mix (7): n_hist = 2 / 2
mix (0): Pulay
mix (0): n_hist = 2 / 2
mix (1): G =   0.010000, sum(alpha) = 0.4277E+00, alpha =  0.4277E+00
mix (5): G =   0.010000, sum(alpha) = 0.4277E+00, alpha =  0.4277E+00
mix (4): G =   0.010000, sum(alpha) = 0.4277E+00, alpha =  0.4277E+00
mix (3): G =   0.010000, sum(alpha) = 0.4277E+00, alpha =  0.4277E+00
mix (2): G =   0.010000, sum(alpha) = 0.4277E+00, alpha =  0.4277E+00
mix (6): G =   0.010000, sum(alpha) = 0.4277E+00, alpha =  0.4277E+00
mix (0): G =   0.010000, sum(alpha) = 0.4277E+00, alpha =  0.4277E+00
mix (7): G =   0.010000, sum(alpha) = 0.4277E+00, alpha =  0.4277E+00
   scf:   10    -2327.085240    -2326.863297    -2327.026228  0.032942 -3.647101  1.513677
     spin moment: S , {S} =    1.43498   1.43498   0.00000   0.00000
mix (7): Pulay
mix (6): Pulay
mix (6): n_hist = 2 / 2
mix (1): Pulay
mix (1): n_hist = 2 / 2
mix (5): Pulay
mix (5): n_hist = 2 / 2
mix (3): Pulay
mix (3): n_hist = 2 / 2
mix (2): Pulay
mix (2): n_hist = 2 / 2
mix (0): Pulay
mix (0): n_hist = 2 / 2
mix (7): n_hist = 2 / 2
mix (4): Pulay
mix (4): n_hist = 2 / 2
mix (2): G =   0.010000, sum(alpha) = 0.5903E+00, alpha =  0.5903E+00
mix (2): saved hist = 1
mix (0): G =   0.010000, sum(alpha) = 0.5903E+00, alpha =  0.5903E+00
mix: Pulay -- resetting history
mix (0): saved hist = 1
mix (6): G =   0.010000, sum(alpha) = 0.5903E+00, alpha =  0.5903E+00
mix (6): saved hist = 1
mix (1): G =   0.010000, sum(alpha) = 0.5903E+00, alpha =  0.5903E+00
mix (1): saved hist = 1
mix (7): G =   0.010000, sum(alpha) = 0.5903E+00, alpha =  0.5903E+00
mix (7): saved hist = 1
mix (5): G =   0.010000, sum(alpha) = 0.5903E+00, alpha =  0.5903E+00
mix (5): saved hist = 1
mix (3): G =   0.010000, sum(alpha) = 0.5903E+00, alpha =  0.5903E+00
mix (3): saved hist = 1
mix (4): G =   0.010000, sum(alpha) = 0.5903E+00, alpha =  0.5903E+00
mix (4): saved hist = 1
   scf:   11    -2326.934103    -2326.927341    -2327.094601  0.017327 -3.476881  0.853152
mix (3): Pulay
mix (3): n_hist = 2 / 2
mix (2): Pulay
mix (2): n_hist = 2 / 2
mix (4): Pulay
mix (4): n_hist = 2 / 2
mix (6): Pulay
mix (6): n_hist = 2 / 2
mix (1): Pulay
mix (1): n_hist = 2 / 2
mix (7): Pulay
mix (7): n_hist = 2 / 2
mix (5): Pulay
mix (5): n_hist = 2 / 2
     spin moment: S , {S} =    1.47615   1.47615   0.00000   0.00000
mix (0): Pulay
mix (0): n_hist = 2 / 2
mix (5): G =   0.010000, sum(alpha) = 0.2036E-02, alpha =  0.2036E-02
mix (3): G =   0.010000, sum(alpha) = 0.2036E-02, alpha =  0.2036E-02
mix (2): G =   0.010000, sum(alpha) = 0.2036E-02, alpha =  0.2036E-02
mix (4): G =   0.010000, sum(alpha) = 0.2036E-02, alpha =  0.2036E-02
mix (6): G =   0.010000, sum(alpha) = 0.2036E-02, alpha =  0.2036E-02
mix (1): G =   0.010000, sum(alpha) = 0.2036E-02, alpha =  0.2036E-02
mix (7): G =   0.010000, sum(alpha) = 0.2036E-02, alpha =  0.2036E-02
mix (0): G =   0.010000, sum(alpha) = 0.2036E-02, alpha =  0.2036E-02
   scf:   12    -2326.933134    -2326.930342    -2327.098078  0.001153 -3.478185  0.812014
     spin moment: S , {S} =    1.47996   1.47996   0.00000   0.00000
mix (7): Pulay
mix (5): Pulay
mix (3): Pulay
mix (3): n_hist = 2 / 2
mix (2): Pulay
mix (2): n_hist = 2 / 2
mix (6): Pulay
mix (6): n_hist = 2 / 2
mix (1): Pulay
mix (1): n_hist = 2 / 2
mix (0): Pulay
mix (0): n_hist = 2 / 2
mix (7): n_hist = 2 / 2
mix (5): n_hist = 2 / 2
mix (4): Pulay
mix (4): n_hist = 2 / 2
mix (1): G =   0.010000, sum(alpha) = 0.2629E+01, alpha =  0.2629E+01
mix (1): saved hist = 1
mix (0): G =   0.010000, sum(alpha) = 0.2629E+01, alpha =  0.2629E+01
mix: Pulay -- resetting history
mix (0): saved hist = 1
mix (0): switching mixer --> kick
mix (7): G =   0.010000, sum(alpha) = 0.2629E+01, alpha =  0.2629E+01
mix (7): saved hist = 1
mix (3): G =   0.010000, sum(alpha) = 0.2629E+01, alpha =  0.2629E+01
mix (3): saved hist = 1
mix (5): G =   0.010000, sum(alpha) = 0.2629E+01, alpha =  0.2629E+01
mix (5): saved hist = 1
mix (2): G =   0.010000, sum(alpha) = 0.2629E+01, alpha =  0.2629E+01
mix (2): saved hist = 1
mix (6): G =   0.010000, sum(alpha) = 0.2629E+01, alpha =  0.2629E+01
mix (6): saved hist = 1
mix (4): G =   0.010000, sum(alpha) = 0.2629E+01, alpha =  0.2629E+01
mix (4): saved hist = 1
   scf:   13    -2326.946395    -2326.938860    -2327.107703  0.002934 -3.483340  0.710073
mix (1): linear
mix (4): linear
mix (4): alpha = 0.1000E+00
mix (3): linear
mix (3): alpha = 0.1000E+00
mix (2): linear
mix (2): alpha = 0.1000E+00
     spin moment: S , {S} =    1.48963   1.48963   0.00000   0.00000
mix (6): linear
mix (1): alpha = 0.1000E+00
mix (7): linear
mix (5): linear
mix (6): alpha = 0.1000E+00
mix (7): alpha = 0.1000E+00
mix (5): alpha = 0.1000E+00
mix (0): linear
mix (0): alpha = 0.1000E+00
mix (0): switching mixer --> broyden
   scf:   14    -2326.977192    -2326.959560    -2327.127953  0.004409 -3.499650  0.701613
mix (2): Broyden
mix (1): Broyden
mix (4): Broyden
mix (3): Broyden
     spin moment: S , {S} =    1.49219   1.49219   0.00000   0.00000
mix (5): Broyden
mix (7): Broyden
mix (6): Broyden
mix (3): Broyden (initial), alpha = 0.1000E-01
mix (2): Broyden (initial), alpha = 0.1000E-01
mix (1): Broyden (initial), alpha = 0.1000E-01
mix (4): Broyden (initial), alpha = 0.1000E-01
mix (6): Broyden (initial), alpha = 0.1000E-01
mix (5): Broyden (initial), alpha = 0.1000E-01
mix (7): Broyden (initial), alpha = 0.1000E-01
mix (0): Broyden
mix (0): Broyden (initial), alpha = 0.1000E-01
   scf:   15    -2326.963275    -2326.961538    -2327.130417  0.001115 -3.500635  0.659735
mix (4): Broyden
mix (3): Broyden
mix (2): Broyden
mix (1): Broyden
mix (1): n_hist = 2 / 2
     spin moment: S , {S} =    1.49607   1.49607   0.00000   0.00000
mix (7): Broyden
mix (6): Broyden
mix (4): n_hist = 2 / 2
mix (3): n_hist = 2 / 2
mix (5): Broyden
mix (2): n_hist = 2 / 2
mix (7): n_hist = 2 / 2
mix (6): n_hist = 2 / 2
mix (5): n_hist = 2 / 2
mix (0): Broyden
mix (0): n_hist = 2 / 2
mix (1): weights =  0.5594E+02
mix (2): weights =  0.5594E+02
mix (4): weights =  0.5594E+02
mix (3): weights =  0.5594E+02
mix (0): weights =  0.5594E+02
mix (5): weights =  0.5594E+02
mix (7): weights =  0.5594E+02
mix (6): weights =  0.5594E+02
mix (0): G =   0.010000, sum(coeff) = 0.2190E+01, coeff =  0.2190E+01
mix (3): G =   0.010000, sum(coeff) = 0.2190E+01, coeff =  0.2190E+01
mix (3): saved hist = 1
mix (1): G =   0.010000, sum(coeff) = 0.2190E+01, coeff =  0.2190E+01
mix (1): saved hist = 1
mix (5): G =   0.010000, sum(coeff) = 0.2190E+01, coeff =  0.2190E+01
mix (5): saved hist = 1
mix (2): G =   0.010000, sum(coeff) = 0.2190E+01, coeff =  0.2190E+01
mix (2): saved hist = 1
mix (4): G =   0.010000, sum(coeff) = 0.2190E+01, coeff =  0.2190E+01
mix (4): saved hist = 1
mix (7): G =   0.010000, sum(coeff) = 0.2190E+01, coeff =  0.2190E+01
mix (7): saved hist = 1
mix (6): G =   0.010000, sum(coeff) = 0.2190E+01, coeff =  0.2190E+01
mix (6): saved hist = 1
mix: Broyden -- resetting history
mix (0): saved hist = 1
   scf:   16    -2326.969110    -2326.965739    -2327.135584  0.002372 -3.503883  0.571709
mix (3): Broyden
mix (3): n_hist = 2 / 2
mix (1): Broyden
mix (1): n_hist = 2 / 2
mix (5): Broyden
mix (2): Broyden
mix (2): n_hist = 2 / 2
mix (4): Broyden
mix (4): n_hist = 2 / 2
     spin moment: S , {S} =    1.50447   1.50447   0.00000   0.00000
mix (7): Broyden
mix (7): n_hist = 2 / 2
mix (6): Broyden
mix (6): n_hist = 2 / 2
mix (5): n_hist = 2 / 2
mix (0): Broyden
mix (0): n_hist = 2 / 2
mix (5): weights =  0.6230E+02
mix (7): weights =  0.6230E+02
mix (4): weights =  0.6230E+02
mix (3): weights =  0.6230E+02
mix (1): weights =  0.6230E+02
mix (6): weights =  0.6230E+02
mix (2): weights =  0.6230E+02
mix (0): weights =  0.6230E+02
mix (2): G =   0.010000, sum(coeff) = 0.4041E+00, coeff =  0.4041E+00
mix (5): G =   0.010000, sum(coeff) = 0.4041E+00, coeff =  0.4041E+00
mix (7): G =   0.010000, sum(coeff) = 0.4041E+00, coeff =  0.4041E+00
mix (4): G =   0.010000, sum(coeff) = 0.4041E+00, coeff =  0.4041E+00
mix (3): G =   0.010000, sum(coeff) = 0.4041E+00, coeff =  0.4041E+00
mix (1): G =   0.010000, sum(coeff) = 0.4041E+00, coeff =  0.4041E+00
mix (6): G =   0.010000, sum(coeff) = 0.4041E+00, coeff =  0.4041E+00
mix (0): G =   0.010000, sum(coeff) = 0.4041E+00, coeff =  0.4041E+00
   scf:   17    -2326.971496    -2326.968635    -2327.138705  0.000831 -3.506226  0.545414
     spin moment: S , {S} =    1.50729   1.50729   0.00000   0.00000
mix (6): Broyden
mix (2): Broyden
mix (2): n_hist = 2 / 2
mix (5): Broyden
mix (4): Broyden
mix (4): n_hist = 2 / 2
mix (1): Broyden
mix (1): n_hist = 2 / 2
mix (0): Broyden
mix (0): n_hist = 2 / 2
mix (6): n_hist = 2 / 2
mix (7): Broyden
mix (7): n_hist = 2 / 2
mix (5): n_hist = 2 / 2
mix (3): Broyden
mix (3): n_hist = 2 / 2
mix (1): weights =  0.6440E+02
mix (0): weights =  0.6440E+02
mix (2): weights =  0.6440E+02
mix (4): weights =  0.6440E+02
mix (6): weights =  0.6440E+02
mix (7): weights =  0.6440E+02
mix (5): weights =  0.6440E+02
mix (3): weights =  0.6440E+02
mix (5): G =   0.010000, sum(coeff) = 0.1129E+02, coeff =  0.1129E+02
mix (5): saved hist = 1
mix (1): G =   0.010000, sum(coeff) = 0.1129E+02, coeff =  0.1129E+02
mix (1): saved hist = 1
mix (0): G =   0.010000, sum(coeff) = 0.1129E+02, coeff =  0.1129E+02
mix: Broyden -- resetting history
mix (0): saved hist = 1
mix (4): G =   0.010000, sum(coeff) = 0.1129E+02, coeff =  0.1129E+02
mix (4): saved hist = 1
mix (6): G =   0.010000, sum(coeff) = 0.1129E+02, coeff =  0.1129E+02
mix (6): saved hist = 1
mix (7): G =   0.010000, sum(coeff) = 0.1129E+02, coeff =  0.1129E+02
mix (7): saved hist = 1
mix (2): G =   0.010000, sum(coeff) = 0.1129E+02, coeff =  0.1129E+02
mix (2): saved hist = 1
mix (3): G =   0.010000, sum(coeff) = 0.1129E+02, coeff =  0.1129E+02
mix (3): saved hist = 1
   scf:   18    -2327.014894    -2326.993494    -2327.165728  0.009510 -3.533048  0.286800
     spin moment: S , {S} =    1.53569   1.53569   0.00000   0.00000
mix (2): Broyden
mix (2): n_hist = 2 / 2
mix (1): Broyden
mix (1): n_hist = 2 / 2
mix (4): Broyden
mix (4): n_hist = 2 / 2
mix (6): Broyden
mix (0): Broyden
mix (6): n_hist = 2 / 2
mix (5): Broyden
mix (5): n_hist = 2 / 2
mix (7): Broyden
mix (7): n_hist = 2 / 2
mix (0): n_hist = 2 / 2
mix (3): Broyden
mix (3): n_hist = 2 / 2
mix (2): weights =  0.9214E+02
mix (0): weights =  0.9214E+02
mix (1): weights =  0.9214E+02
mix (4): weights =  0.9214E+02
mix (7): weights =  0.9214E+02
mix (6): weights =  0.9214E+02
mix (5): weights =  0.9214E+02
mix (3): weights =  0.9214E+02
mix (4): G =   0.010000, sum(coeff) = 0.5700E+00, coeff =  0.5700E+00
mix (7): G =   0.010000, sum(coeff) = 0.5700E+00, coeff =  0.5700E+00
mix (5): G =   0.010000, sum(coeff) = 0.5700E+00, coeff =  0.5700E+00
mix (2): G =   0.010000, sum(coeff) = 0.5700E+00, coeff =  0.5700E+00
mix (0): G =   0.010000, sum(coeff) = 0.5700E+00, coeff =  0.5700E+00
mix (1): G =   0.010000, sum(coeff) = 0.5700E+00, coeff =  0.5700E+00
mix (6): G =   0.010000, sum(coeff) = 0.5700E+00, coeff =  0.5700E+00
mix (3): G =   0.010000, sum(coeff) = 0.5700E+00, coeff =  0.5700E+00
   scf:   19    -2327.008420    -2327.001503    -2327.174658  0.005479 -3.548155  0.170745
     spin moment: S , {S} =    1.54902   1.54902   0.00000   0.00000
mix (6): Broyden
mix (4): Broyden
mix (4): n_hist = 2 / 2
mix (5): Broyden
mix (2): Broyden
mix (2): n_hist = 2 / 2
mix (1): Broyden
mix (1): n_hist = 2 / 2
mix (0): Broyden
mix (0): n_hist = 2 / 2
mix (6): n_hist = 2 / 2
mix (7): Broyden
mix (7): n_hist = 2 / 2
mix (5): n_hist = 2 / 2
mix (3): Broyden
mix (3): n_hist = 2 / 2
mix (1): weights =  0.1105E+03
mix (0): weights =  0.1105E+03
mix (4): weights =  0.1105E+03
mix (2): weights =  0.1105E+03
mix (6): weights =  0.1105E+03
mix (7): weights =  0.1105E+03
mix (5): weights =  0.1105E+03
mix (3): weights =  0.1105E+03
mix (5): G =   0.010000, sum(coeff) = 0.5636E+00, coeff =  0.5636E+00
mix (1): G =   0.010000, sum(coeff) = 0.5636E+00, coeff =  0.5636E+00
mix (1): saved hist = 1
mix (2): G =   0.010000, sum(coeff) = 0.5636E+00, coeff =  0.5636E+00
mix (2): saved hist = 1
mix (0): G =   0.010000, sum(coeff) = 0.5636E+00, coeff =  0.5636E+00
mix: Broyden -- resetting history
mix (0): saved hist = 1
mix (6): G =   0.010000, sum(coeff) = 0.5636E+00, coeff =  0.5636E+00
mix (6): saved hist = 1
mix (7): G =   0.010000, sum(coeff) = 0.5636E+00, coeff =  0.5636E+00
mix (7): saved hist = 1
mix (4): G =   0.010000, sum(coeff) = 0.5636E+00, coeff =  0.5636E+00
mix (4): saved hist = 1
mix (5): saved hist = 1
mix (3): G =   0.010000, sum(coeff) = 0.5636E+00, coeff =  0.5636E+00
mix (3): saved hist = 1
   scf:   20    -2327.006393    -2327.004162    -2327.177651  0.003175 -3.556118  0.125564
mix (1): Broyden
mix (1): n_hist = 2 / 2
mix (2): Broyden
mix (2): n_hist = 2 / 2
mix (3): Broyden
mix (3): n_hist = 2 / 2
mix (6): Broyden
mix (7): Broyden
mix (7): n_hist = 2 / 2
     spin moment: S , {S} =    1.55536   1.55536   0.00000   0.00000
mix (5): Broyden
mix (5): n_hist = 2 / 2
mix (4): Broyden
mix (4): n_hist = 2 / 2
mix (6): n_hist = 2 / 2
mix (0): Broyden
mix (0): n_hist = 2 / 2
mix (5): weights =  0.1190E+03
mix (7): weights =  0.1190E+03
mix (1): weights =  0.1190E+03
mix (2): weights =  0.1190E+03
mix (3): weights =  0.1190E+03
mix (4): weights =  0.1190E+03
mix (0): weights =  0.1190E+03
mix (6): weights =  0.1190E+03
mix (0): G =   0.010000, sum(coeff) = -.2532E-01, coeff =  -.2532E-01
mix (4): G =   0.010000, sum(coeff) = -.2532E-01, coeff =  -.2532E-01
mix (5): G =   0.010000, sum(coeff) = -.2532E-01, coeff =  -.2532E-01
mix (7): G =   0.010000, sum(coeff) = -.2532E-01, coeff =  -.2532E-01
mix (1): G =   0.010000, sum(coeff) = -.2532E-01, coeff =  -.2532E-01
mix (2): G =   0.010000, sum(coeff) = -.2532E-01, coeff =  -.2532E-01
mix (3): G =   0.010000, sum(coeff) = -.2532E-01, coeff =  -.2532E-01
mix (6): G =   0.010000, sum(coeff) = -.2532E-01, coeff =  -.2532E-01
   scf:   21    -2327.004866    -2327.004523    -2327.177863  0.000342 -3.555344  0.130954
     spin moment: S , {S} =    1.55478   1.55478   0.00000   0.00000
mix (4): Broyden
mix (1): Broyden
mix (2): Broyden
mix (6): Broyden
mix (5): Broyden
mix (4): n_hist = 2 / 2
mix (1): n_hist = 2 / 2
mix (2): n_hist = 2 / 2
mix (0): Broyden
mix (6): n_hist = 2 / 2
mix (5): n_hist = 2 / 2
mix (0): n_hist = 2 / 2
mix (3): Broyden
mix (7): Broyden
mix (7): n_hist = 2 / 2
mix (3): n_hist = 2 / 2
mix (0): weights =  0.1180E+03
mix (1): weights =  0.1180E+03
mix (2): weights =  0.1180E+03
mix (4): weights =  0.1180E+03
mix (5): weights =  0.1180E+03
mix (7): weights =  0.1180E+03
mix (6): weights =  0.1180E+03
mix (3): weights =  0.1180E+03
mix (6): G =   0.010000, sum(coeff) = -.8993E-01, coeff =  -.8993E-01
mix (6): saved hist = 1
mix (0): G =   0.010000, sum(coeff) = -.8993E-01, coeff =  -.8993E-01
mix: Broyden -- resetting history
mix (0): saved hist = 1
mix (1): G =   0.010000, sum(coeff) = -.8993E-01, coeff =  -.8993E-01
mix (1): saved hist = 1
mix (4): G =   0.010000, sum(coeff) = -.8993E-01, coeff =  -.8993E-01
mix (4): saved hist = 1
mix (5): G =   0.010000, sum(coeff) = -.8993E-01, coeff =  -.8993E-01
mix (5): saved hist = 1
mix (7): G =   0.010000, sum(coeff) = -.8993E-01, coeff =  -.8993E-01
mix (7): saved hist = 1
mix (2): G =   0.010000, sum(coeff) = -.8993E-01, coeff =  -.8993E-01
mix (2): saved hist = 1
mix (3): G =   0.010000, sum(coeff) = -.8993E-01, coeff =  -.8993E-01
mix (3): saved hist = 1
   scf:   22    -2327.005062    -2327.004796    -2327.178056  0.000205 -3.554835  0.134982
     spin moment: S , {S} =    1.55475   1.55475   0.00000   0.00000
mix (2): Broyden
mix (2): n_hist = 2 / 2
mix (6): Broyden
mix (1): Broyden
mix (1): n_hist = 2 / 2
mix (4): Broyden
mix (4): n_hist = 2 / 2
mix (5): Broyden
mix (0): Broyden
mix (6): n_hist = 2 / 2
mix (7): Broyden
mix (5): n_hist = 2 / 2
mix (0): n_hist = 2 / 2
mix (7): n_hist = 2 / 2
mix (3): Broyden
mix (3): n_hist = 2 / 2
mix (0): weights =  0.1172E+03
mix (2): weights =  0.1172E+03
mix (1): weights =  0.1172E+03
mix (4): weights =  0.1172E+03
mix (7): weights =  0.1172E+03
mix (5): weights =  0.1172E+03
mix (6): weights =  0.1172E+03
mix (3): weights =  0.1172E+03
mix (6): G =   0.010000, sum(coeff) = -.4609E+00, coeff =  -.4609E+00
mix (0): G =   0.010000, sum(coeff) = -.4609E+00, coeff =  -.4609E+00
mix (4): G =   0.010000, sum(coeff) = -.4609E+00, coeff =  -.4609E+00
mix (7): G =   0.010000, sum(coeff) = -.4609E+00, coeff =  -.4609E+00
mix (2): G =   0.010000, sum(coeff) = -.4609E+00, coeff =  -.4609E+00
mix (1): G =   0.010000, sum(coeff) = -.4609E+00, coeff =  -.4609E+00
mix (5): G =   0.010000, sum(coeff) = -.4609E+00, coeff =  -.4609E+00
mix (3): G =   0.010000, sum(coeff) = -.4609E+00, coeff =  -.4609E+00
   scf:   23    -2327.005084    -2327.004940    -2327.178165  0.000121 -3.554490  0.136515
     spin moment: S , {S} =    1.55482   1.55482   0.00000   0.00000
mix (5): Broyden
mix (6): Broyden
mix (4): Broyden
mix (4): n_hist = 2 / 2
mix (2): Broyden
mix (2): n_hist = 2 / 2
mix (1): Broyden
mix (1): n_hist = 2 / 2
mix (0): Broyden
mix (0): n_hist = 2 / 2
mix (5): n_hist = 2 / 2
mix (6): n_hist = 2 / 2
mix (7): Broyden
mix (7): n_hist = 2 / 2
mix (3): Broyden
mix (3): n_hist = 2 / 2
mix (1): weights =  0.1169E+03
mix (0): weights =  0.1169E+03
mix (4): weights =  0.1169E+03
mix (2): weights =  0.1169E+03
mix (7): weights =  0.1169E+03
mix (5): weights =  0.1169E+03
mix (6): weights =  0.1169E+03
mix (3): weights =  0.1169E+03
mix (6): G =   0.010000, sum(coeff) = 0.7791E+00, coeff =  0.7791E+00
mix (1): G =   0.010000, sum(coeff) = 0.7791E+00, coeff =  0.7791E+00
mix (1): saved hist = 1
mix (2): G =   0.010000, sum(coeff) = 0.7791E+00, coeff =  0.7791E+00
mix (2): saved hist = 1
mix (7): G =   0.010000, sum(coeff) = 0.7791E+00, coeff =  0.7791E+00
mix (7): saved hist = 1
mix (5): G =   0.010000, sum(coeff) = 0.7791E+00, coeff =  0.7791E+00
mix (5): saved hist = 1
mix (0): G =   0.010000, sum(coeff) = 0.7791E+00, coeff =  0.7791E+00
mix: Broyden -- resetting history
mix (0): saved hist = 1
mix (0): switching mixer --> kick
mix (4): G =   0.010000, sum(coeff) = 0.7791E+00, coeff =  0.7791E+00
mix (4): saved hist = 1
mix (6): saved hist = 1
mix (3): G =   0.010000, sum(coeff) = 0.7791E+00, coeff =  0.7791E+00
mix (3): saved hist = 1
   scf:   24    -2327.005595    -2327.005269    -2327.178425  0.000304 -3.553646  0.138528
     spin moment: S , {S} =    1.55516   1.55516   0.00000   0.00000
mix (6): linear
mix (4): linear
mix (4): alpha = 0.1000E+00
mix (1): linear
mix (1): alpha = 0.1000E+00
mix (2): linear
mix (2): alpha = 0.1000E+00
mix (5): linear
mix (5): alpha = 0.1000E+00
mix (0): linear
mix (0): alpha = 0.1000E+00
mix (0): switching mixer --> broyden
mix (6): alpha = 0.1000E+00
mix (7): linear
mix (7): alpha = 0.1000E+00
mix (3): linear
mix (3): alpha = 0.1000E+00
   scf:   25    -2327.009060    -2327.007179    -2327.180040  0.002070 -3.547935  0.138934
mix (3): Broyden
mix (4): Broyden
mix (1): Broyden
mix (2): Broyden
     spin moment: S , {S} =    1.55866   1.55866   0.00000   0.00000
mix (5): Broyden
mix (2): n_hist = 2 / 2
mix (3): n_hist = 2 / 2
mix (4): n_hist = 2 / 2
mix (6): Broyden
mix (1): n_hist = 2 / 2
mix (7): Broyden
mix (5): n_hist = 2 / 2
mix (6): n_hist = 2 / 2
mix (7): n_hist = 2 / 2
mix (0): Broyden
mix (0): n_hist = 2 / 2
mix (2): weights =  0.1164E+03
mix (3): weights =  0.1164E+03
mix (4): weights =  0.1164E+03
mix (1): weights =  0.1164E+03
mix (7): weights =  0.1164E+03
mix (6): weights =  0.1164E+03
mix (5): weights =  0.1164E+03
mix (0): weights =  0.1164E+03
mix (1): G =   0.010000, sum(coeff) = 0.9281E+00, coeff =  0.9281E+00
mix (7): G =   0.010000, sum(coeff) = 0.9281E+00, coeff =  0.9281E+00
mix (5): G =   0.010000, sum(coeff) = 0.9281E+00, coeff =  0.9281E+00
mix (2): G =   0.010000, sum(coeff) = 0.9281E+00, coeff =  0.9281E+00
mix (3): G =   0.010000, sum(coeff) = 0.9281E+00, coeff =  0.9281E+00
mix (6): G =   0.010000, sum(coeff) = 0.9281E+00, coeff =  0.9281E+00
mix (4): G =   0.010000, sum(coeff) = 0.9281E+00, coeff =  0.9281E+00
mix (0): G =   0.010000, sum(coeff) = 0.9281E+00, coeff =  0.9281E+00
   scf:   26    -2327.010850    -2327.009019    -2327.181655  0.002365 -3.541400  0.131405
mix (4): Broyden
mix (4): n_hist = 2 / 2
mix (1): Broyden
mix (1): n_hist = 2 / 2
mix (7): Broyden
mix (5): Broyden
mix (2): Broyden
mix (2): n_hist = 2 / 2
mix (3): Broyden
mix (3): n_hist = 2 / 2
mix (6): Broyden
mix (6): n_hist = 2 / 2
     spin moment: S , {S} =    1.56337   1.56337   0.00000   0.00000
mix (7): n_hist = 2 / 2
mix (5): n_hist = 2 / 2
mix (0): Broyden
mix (0): n_hist = 2 / 2
mix (4): weights =  0.1179E+03
mix (1): weights =  0.1179E+03
mix (5): weights =  0.1179E+03
mix (7): weights =  0.1179E+03
mix (2): weights =  0.1179E+03
mix (3): weights =  0.1179E+03
mix (0): weights =  0.1179E+03
mix (6): weights =  0.1179E+03
mix (0): G =   0.010000, sum(coeff) = 0.3958E+01, coeff =  0.3958E+01
mix: Broyden -- resetting history
mix (3): G =   0.010000, sum(coeff) = 0.3958E+01, coeff =  0.3958E+01
mix (3): saved hist = 1
mix (4): G =   0.010000, sum(coeff) = 0.3958E+01, coeff =  0.3958E+01
mix (4): saved hist = 1
mix (5): G =   0.010000, sum(coeff) = 0.3958E+01, coeff =  0.3958E+01
mix (5): saved hist = 1
mix (7): G =   0.010000, sum(coeff) = 0.3958E+01, coeff =  0.3958E+01
mix (7): saved hist = 1
mix (2): G =   0.010000, sum(coeff) = 0.3958E+01, coeff =  0.3958E+01
mix (2): saved hist = 1
mix (6): G =   0.010000, sum(coeff) = 0.3958E+01, coeff =  0.3958E+01
mix (6): saved hist = 1
mix (0): saved hist = 1
mix (1): G =   0.010000, sum(coeff) = 0.3958E+01, coeff =  0.3958E+01
mix (1): saved hist = 1
   scf:   27    -2323.818030    -2325.933539    -2326.131067  0.060251 -3.521145  5.433329
     spin moment: S , {S} =    1.78735   1.78735   0.00000   0.00000
mix (2): Broyden
mix (4): Broyden
mix (6): Broyden
mix (2): n_hist = 2 / 2
mix (4): n_hist = 2 / 2
mix (0): Broyden
mix (0): n_hist = 2 / 2
mix (6): n_hist = 2 / 2
mix (3): Broyden
mix (5): Broyden
mix (7): Broyden
mix (3): n_hist = 2 / 2
mix (5): n_hist = 2 / 2
mix (7): n_hist = 2 / 2
mix (1): Broyden
mix (1): n_hist = 2 / 2
mix (4): weights =  0.5304E+01
mix (2): weights =  0.5304E+01
mix (0): weights =  0.5304E+01
mix (3): weights =  0.5304E+01
mix (6): weights =  0.5304E+01
mix (7): weights =  0.5304E+01
mix (5): weights =  0.5304E+01
mix (1): weights =  0.5304E+01
mix (5): G =   0.010000, sum(coeff) = -.9882E+00, coeff =  -.9882E+00
mix (4): G =   0.010000, sum(coeff) = -.9882E+00, coeff =  -.9882E+00
mix (3): G =   0.010000, sum(coeff) = -.9882E+00, coeff =  -.9882E+00
mix (6): G =   0.010000, sum(coeff) = -.9882E+00, coeff =  -.9882E+00
mix (2): G =   0.010000, sum(coeff) = -.9882E+00, coeff =  -.9882E+00
mix (7): G =   0.010000, sum(coeff) = -.9882E+00, coeff =  -.9882E+00
mix (0): G =   0.010000, sum(coeff) = -.9882E+00, coeff =  -.9882E+00
mix (1): G =   0.010000, sum(coeff) = -.9882E+00, coeff =  -.9882E+00
   scf:   28    -2327.062958    -2327.008949    -2327.181841  0.059666 -3.540717  0.109326
     spin moment: S , {S} =    1.56608   1.56608   0.00000   0.00000
mix (4): Broyden
mix (4): n_hist = 2 / 2
mix (6): Broyden
mix (2): Broyden
mix (2): n_hist = 2 / 2
mix (0): Broyden
mix (0): n_hist = 2 / 2
mix (5): Broyden
mix (5): n_hist = 2 / 2
mix (3): Broyden
mix (3): n_hist = 2 / 2
mix (6): n_hist = 2 / 2
mix (7): Broyden
mix (7): n_hist = 2 / 2
mix (1): Broyden
mix (1): n_hist = 2 / 2
mix (0): weights =  0.1223E+03
mix (2): weights =  0.1223E+03
mix (4): weights =  0.1223E+03
mix (3): weights =  0.1223E+03
mix (7): weights =  0.1223E+03
mix (5): weights =  0.1223E+03
mix (6): weights =  0.1223E+03
mix (1): weights =  0.1223E+03
mix (3): G =   0.010000, sum(coeff) = -.2504E-02, coeff =  -.2504E-02
mix (3): saved hist = 1
mix (6): G =   0.010000, sum(coeff) = -.2504E-02, coeff =  -.2504E-02
mix (6): saved hist = 1
mix (0): G =   0.010000, sum(coeff) = -.2504E-02, coeff =  -.2504E-02
mix: Broyden -- resetting history
mix (0): saved hist = 1
mix (7): G =   0.010000, sum(coeff) = -.2504E-02, coeff =  -.2504E-02
mix (7): saved hist = 1
mix (2): G =   0.010000, sum(coeff) = -.2504E-02, coeff =  -.2504E-02
mix (2): saved hist = 1
mix (4): G =   0.010000, sum(coeff) = -.2504E-02, coeff =  -.2504E-02
mix (4): saved hist = 1
mix (5): G =   0.010000, sum(coeff) = -.2504E-02, coeff =  -.2504E-02
mix (5): saved hist = 1
mix (1): G =   0.010000, sum(coeff) = -.2504E-02, coeff =  -.2504E-02
mix (1): saved hist = 1
   scf:   29    -2327.009204    -2327.009076    -2327.181959  0.000180 -3.540272  0.108790
mix (3): Broyden
mix (1): Broyden
mix (2): Broyden
mix (4): Broyden
     spin moment: S , {S} =    1.56657   1.56657   0.00000   0.00000
mix (5): Broyden
mix (6): Broyden
mix (3): n_hist = 2 / 2
mix (7): Broyden
mix (1): n_hist = 2 / 2
mix (2): n_hist = 2 / 2
mix (4): n_hist = 2 / 2
mix (5): n_hist = 2 / 2
mix (6): n_hist = 2 / 2
mix (7): n_hist = 2 / 2
mix (0): Broyden
mix (0): n_hist = 2 / 2
mix (2): weights =  0.1225E+03
mix (4): weights =  0.1225E+03
mix (5): weights =  0.1225E+03
mix (3): weights =  0.1225E+03
mix (6): weights =  0.1225E+03
mix (1): weights =  0.1225E+03
mix (0): weights =  0.1225E+03
mix (7): weights =  0.1225E+03
mix (0): G =   0.010000, sum(coeff) = 0.4651E+02, coeff =  0.4651E+02
mix (2): G =   0.010000, sum(coeff) = 0.4651E+02, coeff =  0.4651E+02
mix (4): G =   0.010000, sum(coeff) = 0.4651E+02, coeff =  0.4651E+02
mix (5): G =   0.010000, sum(coeff) = 0.4651E+02, coeff =  0.4651E+02
mix (3): G =   0.010000, sum(coeff) = 0.4651E+02, coeff =  0.4651E+02
mix (6): G =   0.010000, sum(coeff) = 0.4651E+02, coeff =  0.4651E+02
mix (7): G =   0.010000, sum(coeff) = 0.4651E+02, coeff =  0.4651E+02
mix (1): G =   0.010000, sum(coeff) = 0.4651E+02, coeff =  0.4651E+02
   scf:   30    -2327.017975    -2327.013466    -2327.186038  0.008503 -3.519300  0.074729
     spin moment: S , {S} =    1.58949   1.58949   0.00000   0.00000
mix (6): Broyden
mix (2): Broyden
mix (2): n_hist = 2 / 2
mix (4): Broyden
mix (4): n_hist = 2 / 2
mix (3): Broyden
mix (0): Broyden
mix (0): n_hist = 2 / 2
mix (3): n_hist = 2 / 2
mix (7): Broyden
mix (7): n_hist = 2 / 2
mix (6): n_hist = 2 / 2
mix (5): Broyden
mix (5): n_hist = 2 / 2
mix (1): Broyden
mix (1): n_hist = 2 / 2
mix (0): weights =  0.1298E+03
mix (3): weights =  0.1298E+03
mix (2): weights =  0.1298E+03
mix (4): weights =  0.1298E+03
mix (5): weights =  0.1298E+03
mix (7): weights =  0.1298E+03
mix (6): weights =  0.1298E+03
mix (1): weights =  0.1298E+03
mix (6): G =   0.010000, sum(coeff) = 0.3830E+00, coeff =  0.3830E+00
mix (6): saved hist = 1
mix (0): G =   0.010000, sum(coeff) = 0.3830E+00, coeff =  0.3830E+00
mix: Broyden -- resetting history
mix (0): saved hist = 1
mix (4): G =   0.010000, sum(coeff) = 0.3830E+00, coeff =  0.3830E+00
mix (4): saved hist = 1
mix (5): G =   0.010000, sum(coeff) = 0.3830E+00, coeff =  0.3830E+00
mix (5): saved hist = 1
mix (3): G =   0.010000, sum(coeff) = 0.3830E+00, coeff =  0.3830E+00
mix (3): saved hist = 1
mix (7): G =   0.010000, sum(coeff) = 0.3830E+00, coeff =  0.3830E+00
mix (7): saved hist = 1
mix (2): G =   0.010000, sum(coeff) = 0.3830E+00, coeff =  0.3830E+00
mix (2): saved hist = 1
mix (1): G =   0.010000, sum(coeff) = 0.3830E+00, coeff =  0.3830E+00
mix (1): saved hist = 1
   scf:   31    -2327.015292    -2327.014365    -2327.186934  0.003318 -3.511157  0.054085
mix (2): Broyden
mix (2): n_hist = 2 / 2
mix (6): Broyden
mix (1): Broyden
mix (1): n_hist = 2 / 2
mix (4): Broyden
mix (4): n_hist = 2 / 2
mix (5): Broyden
mix (5): n_hist = 2 / 2
mix (3): Broyden
mix (3): n_hist = 2 / 2
mix (7): Broyden
mix (7): n_hist = 2 / 2
     spin moment: S , {S} =    1.59890   1.59890   0.00000   0.00000
mix (6): n_hist = 2 / 2
mix (0): Broyden
mix (0): n_hist = 2 / 2
mix (2): weights =  0.1346E+03
mix (1): weights =  0.1346E+03
mix (4): weights =  0.1346E+03
mix (3): weights =  0.1346E+03
mix (7): weights =  0.1346E+03
mix (6): weights =  0.1346E+03
mix (5): weights =  0.1346E+03
mix (0): weights =  0.1346E+03
mix (3): G =   0.010000, sum(coeff) = 0.9320E+00, coeff =  0.9320E+00
mix (5): G =   0.010000, sum(coeff) = 0.9320E+00, coeff =  0.9320E+00
mix (7): G =   0.010000, sum(coeff) = 0.9320E+00, coeff =  0.9320E+00
mix (2): G =   0.010000, sum(coeff) = 0.9320E+00, coeff =  0.9320E+00
mix (1): G =   0.010000, sum(coeff) = 0.9320E+00, coeff =  0.9320E+00
mix (6): G =   0.010000, sum(coeff) = 0.9320E+00, coeff =  0.9320E+00
mix (4): G =   0.010000, sum(coeff) = 0.9320E+00, coeff =  0.9320E+00
mix (0): G =   0.010000, sum(coeff) = 0.9320E+00, coeff =  0.9320E+00
   scf:   32    -2327.015279    -2327.014810    -2327.187443  0.003111 -3.503570  0.044395
mix (4): Broyden
mix (4): n_hist = 2 / 2
mix (3): Broyden
mix (3): n_hist = 2 / 2
mix (2): Broyden
mix (2): n_hist = 2 / 2
mix (1): Broyden
mix (1): n_hist = 2 / 2
mix (6): Broyden
mix (6): n_hist = 2 / 2
     spin moment: S , {S} =    1.60816   1.60816   0.00000   0.00000
mix (5): Broyden
mix (5): n_hist = 2 / 2
mix (7): Broyden
mix (7): n_hist = 2 / 2
mix (0): Broyden
mix (0): n_hist = 2 / 2
mix (6): weights =  0.1370E+03
mix (4): weights =  0.1370E+03
mix (7): weights =  0.1370E+03
mix (5): weights =  0.1370E+03
mix (3): weights =  0.1370E+03
mix (2): weights =  0.1370E+03
mix (1): weights =  0.1370E+03
mix (0): weights =  0.1370E+03
mix (1): G =   0.010000, sum(coeff) = 0.4647E-01, coeff =  0.4647E-01
mix (1): saved hist = 1
mix (6): G =   0.010000, sum(coeff) = 0.4647E-01, coeff =  0.4647E-01
mix (6): saved hist = 1
mix (4): G =   0.010000, sum(coeff) = 0.4647E-01, coeff =  0.4647E-01
mix (4): saved hist = 1
mix (7): G =   0.010000, sum(coeff) = 0.4647E-01, coeff =  0.4647E-01
mix (7): saved hist = 1
mix (5): G =   0.010000, sum(coeff) = 0.4647E-01, coeff =  0.4647E-01
mix (5): saved hist = 1
mix (3): G =   0.010000, sum(coeff) = 0.4647E-01, coeff =  0.4647E-01
mix (2): G =   0.010000, sum(coeff) = 0.4647E-01, coeff =  0.4647E-01
mix (2): saved hist = 1
mix (0): G =   0.010000, sum(coeff) = 0.4647E-01, coeff =  0.4647E-01
mix: Broyden -- resetting history
mix (0): saved hist = 1
mix (3): saved hist = 1
   scf:   33    -2327.014791    -2327.014801    -2327.187473  0.000149 -3.503237  0.042536
mix (2): Broyden
mix (1): Broyden
mix (4): Broyden
mix (3): Broyden
     spin moment: S , {S} =    1.60910   1.60910   0.00000   0.00000
mix (3): n_hist = 2 / 2
mix (2): n_hist = 2 / 2
mix (6): Broyden
mix (1): n_hist = 2 / 2
mix (7): Broyden
mix (5): Broyden
mix (4): n_hist = 2 / 2
mix (6): n_hist = 2 / 2
mix (7): n_hist = 2 / 2
mix (5): n_hist = 2 / 2
mix (0): Broyden
mix (0): n_hist = 2 / 2
mix (3): weights =  0.1374E+03
mix (2): weights =  0.1374E+03
mix (4): weights =  0.1374E+03
mix (1): weights =  0.1374E+03
mix (6): weights =  0.1374E+03
mix (7): weights =  0.1374E+03
mix (0): weights =  0.1374E+03
mix (5): weights =  0.1374E+03
mix (0): G =   0.010000, sum(coeff) = 0.1529E+01, coeff =  0.1529E+01
mix (7): G =   0.010000, sum(coeff) = 0.1529E+01, coeff =  0.1529E+01
mix (3): G =   0.010000, sum(coeff) = 0.1529E+01, coeff =  0.1529E+01
mix (2): G =   0.010000, sum(coeff) = 0.1529E+01, coeff =  0.1529E+01
mix (4): G =   0.010000, sum(coeff) = 0.1529E+01, coeff =  0.1529E+01
mix (6): G =   0.010000, sum(coeff) = 0.1529E+01, coeff =  0.1529E+01
mix (5): G =   0.010000, sum(coeff) = 0.1529E+01, coeff =  0.1529E+01
mix (1): G =   0.010000, sum(coeff) = 0.1529E+01, coeff =  0.1529E+01
   scf:   34    -2327.014764    -2327.014783    -2327.187524  0.000232 -3.502755  0.039433
     spin moment: S , {S} =    1.61087   1.61087   0.00000   0.00000
mix (6): Broyden
mix (6): n_hist = 2 / 2
mix (3): Broyden
mix (3): n_hist = 2 / 2
mix (2): Broyden
mix (2): n_hist = 2 / 2
mix (5): Broyden
mix (4): Broyden
mix (4): n_hist = 2 / 2
mix (0): Broyden
mix (0): n_hist = 2 / 2
mix (1): Broyden
mix (7): Broyden
mix (7): n_hist = 2 / 2
mix (5): n_hist = 2 / 2
mix (1): n_hist = 2 / 2
mix (4): weights =  0.1382E+03
mix (0): weights =  0.1382E+03
mix (3): weights =  0.1382E+03
mix (2): weights =  0.1382E+03
mix (5): weights =  0.1382E+03
mix (6): weights =  0.1382E+03
mix (7): weights =  0.1382E+03
mix (1): weights =  0.1382E+03
mix (7): G =   0.010000, sum(coeff) = 0.5160E+00, coeff =  0.5160E+00
mix (7): saved hist = 1
mix (4): G =   0.010000, sum(coeff) = 0.5160E+00, coeff =  0.5160E+00
mix (4): saved hist = 1
mix (2): G =   0.010000, sum(coeff) = 0.5160E+00, coeff =  0.5160E+00
mix (2): saved hist = 1
mix (5): G =   0.010000, sum(coeff) = 0.5160E+00, coeff =  0.5160E+00
mix (5): saved hist = 1
mix (0): G =   0.010000, sum(coeff) = 0.5160E+00, coeff =  0.5160E+00
mix: Broyden -- resetting history
mix (0): saved hist = 1
mix (0): switching mixer --> kick
mix (3): G =   0.010000, sum(coeff) = 0.5160E+00, coeff =  0.5160E+00
mix (3): saved hist = 1
mix (6): G =   0.010000, sum(coeff) = 0.5160E+00, coeff =  0.5160E+00
mix (6): saved hist = 1
mix (1): G =   0.010000, sum(coeff) = 0.5160E+00, coeff =  0.5160E+00
mix (1): saved hist = 1
   scf:   35    -2327.014775    -2327.014779    -2327.187559  0.000123 -3.502535  0.038008
     spin moment: S , {S} =    1.61206   1.61206   0.00000   0.00000
mix (4): linear
mix (4): alpha = 0.1000E+00
mix (2): linear
mix (2): alpha = 0.1000E+00
mix (6): linear
mix (6): alpha = 0.1000E+00
mix (0): linear
mix (0): alpha = 0.1000E+00
mix (0): switching mixer --> broyden
mix (5): linear
mix (3): linear
mix (3): alpha = 0.1000E+00
mix (7): linear
mix (7): alpha = 0.1000E+00
mix (5): alpha = 0.1000E+00
mix (1): linear
mix (1): alpha = 0.1000E+00
   scf:   36    -2327.014818    -2327.014800    -2327.187655  0.000352 -3.502794  0.037022
mix (2): Broyden
mix (2): n_hist = 2 / 2
mix (3): Broyden
mix (3): n_hist = 2 / 2
mix (6): Broyden
mix (4): Broyden
mix (4): n_hist = 2 / 2
mix (1): Broyden
mix (1): n_hist = 2 / 2
mix (5): Broyden
mix (5): n_hist = 2 / 2
mix (7): Broyden
mix (7): n_hist = 2 / 2
     spin moment: S , {S} =    1.61518   1.61518   0.00000   0.00000
mix (6): n_hist = 2 / 2
mix (0): Broyden
mix (0): n_hist = 2 / 2
mix (2): weights =  0.1388E+03
mix (3): weights =  0.1388E+03
mix (6): weights =  0.1388E+03
mix (4): weights =  0.1388E+03
mix (1): weights =  0.1388E+03
mix (5): weights =  0.1388E+03
mix (0): weights =  0.1388E+03
mix (7): weights =  0.1388E+03
mix (0): G =   0.010000, sum(coeff) = 0.7540E+00, coeff =  0.7540E+00
mix (5): G =   0.010000, sum(coeff) = 0.7540E+00, coeff =  0.7540E+00
mix (2): G =   0.010000, sum(coeff) = 0.7540E+00, coeff =  0.7540E+00
mix (3): G =   0.010000, sum(coeff) = 0.7540E+00, coeff =  0.7540E+00
mix (6): G =   0.010000, sum(coeff) = 0.7540E+00, coeff =  0.7540E+00
mix (4): G =   0.010000, sum(coeff) = 0.7540E+00, coeff =  0.7540E+00
mix (7): G =   0.010000, sum(coeff) = 0.7540E+00, coeff =  0.7540E+00
mix (1): G =   0.010000, sum(coeff) = 0.7540E+00, coeff =  0.7540E+00
   scf:   37    -2327.014736    -2327.014768    -2327.187750  0.000335 -3.502811  0.032583
     spin moment: S , {S} =    1.61899   1.61899   0.00000   0.00000
mix (4): Broyden
mix (4): n_hist = 2 / 2
mix (2): Broyden
mix (2): n_hist = 2 / 2
mix (6): Broyden
mix (0): Broyden
mix (6): n_hist = 2 / 2
mix (5): Broyden
mix (5): n_hist = 2 / 2
mix (3): Broyden
mix (3): n_hist = 2 / 2
mix (7): Broyden
mix (7): n_hist = 2 / 2
mix (0): n_hist = 2 / 2
mix (1): Broyden
mix (1): n_hist = 2 / 2
mix (0): weights =  0.1399E+03
mix (4): weights =  0.1399E+03
mix (2): weights =  0.1399E+03
mix (3): weights =  0.1399E+03
mix (7): weights =  0.1399E+03
mix (6): weights =  0.1399E+03
mix (5): weights =  0.1399E+03
mix (1): weights =  0.1399E+03
mix (3): G =   0.010000, sum(coeff) = 0.3536E+01, coeff =  0.3536E+01
mix (3): saved hist = 1
mix (5): G =   0.010000, sum(coeff) = 0.3536E+01, coeff =  0.3536E+01
mix (5): saved hist = 1
mix (7): G =   0.010000, sum(coeff) = 0.3536E+01, coeff =  0.3536E+01
mix (7): saved hist = 1
mix (0): G =   0.010000, sum(coeff) = 0.3536E+01, coeff =  0.3536E+01
mix: Broyden -- resetting history
mix (0): saved hist = 1
mix (6): G =   0.010000, sum(coeff) = 0.3536E+01, coeff =  0.3536E+01
mix (6): saved hist = 1
mix (4): G =   0.010000, sum(coeff) = 0.3536E+01, coeff =  0.3536E+01
mix (4): saved hist = 1
mix (2): G =   0.010000, sum(coeff) = 0.3536E+01, coeff =  0.3536E+01
mix (2): saved hist = 1
mix (1): G =   0.010000, sum(coeff) = 0.3536E+01, coeff =  0.3536E+01
mix (1): saved hist = 1
   scf:   38    -2326.814187    -2326.945504    -2327.125238  0.015033 -3.495794  1.350992
mix (2): Broyden
mix (2): n_hist = 2 / 2
mix (3): Broyden
mix (3): n_hist = 2 / 2
mix (5): Broyden
mix (7): Broyden
mix (7): n_hist = 2 / 2
mix (1): Broyden
mix (1): n_hist = 2 / 2
mix (6): Broyden
mix (6): n_hist = 2 / 2
mix (4): Broyden
mix (4): n_hist = 2 / 2
     spin moment: S , {S} =    1.69146   1.69146   0.00000   0.00000
mix (5): n_hist = 2 / 2
mix (0): Broyden
mix (0): n_hist = 2 / 2
mix (4): weights =  0.2825E+02
mix (2): weights =  0.2825E+02
mix (3): weights =  0.2825E+02
mix (5): weights =  0.2825E+02
mix (7): weights =  0.2825E+02
mix (1): weights =  0.2825E+02
mix (6): weights =  0.2825E+02
mix (0): weights =  0.2825E+02
mix (6): G =   0.010000, sum(coeff) = -.9931E+00, coeff =  -.9931E+00
mix (4): G =   0.010000, sum(coeff) = -.9931E+00, coeff =  -.9931E+00
mix (2): G =   0.010000, sum(coeff) = -.9931E+00, coeff =  -.9931E+00
mix (3): G =   0.010000, sum(coeff) = -.9931E+00, coeff =  -.9931E+00
mix (5): G =   0.010000, sum(coeff) = -.9931E+00, coeff =  -.9931E+00
mix (7): G =   0.010000, sum(coeff) = -.9931E+00, coeff =  -.9931E+00
mix (1): G =   0.010000, sum(coeff) = -.9931E+00, coeff =  -.9931E+00
mix (0): G =   0.010000, sum(coeff) = -.9931E+00, coeff =  -.9931E+00
   scf:   39    -2327.022719    -2327.014724    -2327.187762  0.014927 -3.502757  0.028997
mix (1): Broyden
mix (1): n_hist = 2 / 2
mix (6): Broyden
mix (6): n_hist = 2 / 2
mix (4): Broyden
mix (4): n_hist = 2 / 2
mix (2): Broyden
mix (2): n_hist = 2 / 2
mix (3): Broyden
mix (3): n_hist = 2 / 2
mix (5): Broyden
mix (5): n_hist = 2 / 2
mix (7): Broyden
mix (7): n_hist = 2 / 2
     spin moment: S , {S} =    1.61981   1.61981   0.00000   0.00000
mix (0): Broyden
mix (0): n_hist = 2 / 2
mix (1): weights =  0.1408E+03
mix (6): weights =  0.1408E+03
mix (4): weights =  0.1408E+03
mix (2): weights =  0.1408E+03
mix (3): weights =  0.1408E+03
mix (5): weights =  0.1408E+03
mix (0): weights =  0.1408E+03
mix (7): weights =  0.1408E+03
mix (0): G =   0.010000, sum(coeff) = -.1600E-03, coeff =  -.1600E-03
mix: Broyden -- resetting history
mix (5): G =   0.010000, sum(coeff) = -.1600E-03, coeff =  -.1600E-03
mix (5): saved hist = 1
mix (1): G =   0.010000, sum(coeff) = -.1600E-03, coeff =  -.1600E-03
mix (1): saved hist = 1
mix (6): G =   0.010000, sum(coeff) = -.1600E-03, coeff =  -.1600E-03
mix (6): saved hist = 1
mix (4): G =   0.010000, sum(coeff) = -.1600E-03, coeff =  -.1600E-03
mix (4): saved hist = 1
mix (3): G =   0.010000, sum(coeff) = -.1600E-03, coeff =  -.1600E-03
mix (3): saved hist = 1
mix (7): G =   0.010000, sum(coeff) = -.1600E-03, coeff =  -.1600E-03
mix (7): saved hist = 1
mix (0): saved hist = 1
mix (2): G =   0.010000, sum(coeff) = -.1600E-03, coeff =  -.1600E-03
mix (2): saved hist = 1
   scf:   40    -2327.014720    -2327.014722    -2327.187769  0.000029 -3.502751  0.028672
mix (3): Broyden
mix (3): n_hist = 2 / 2
mix (1): Broyden
mix (1): n_hist = 2 / 2
mix (6): Broyden
mix (2): Broyden
mix (2): n_hist = 2 / 2
mix (4): Broyden
mix (4): n_hist = 2 / 2
     spin moment: S , {S} =    1.62014   1.62014   0.00000   0.00000
mix (7): Broyden
mix (7): n_hist = 2 / 2
mix (5): Broyden
mix (5): n_hist = 2 / 2
mix (6): n_hist = 2 / 2
mix (0): Broyden
mix (0): n_hist = 2 / 2
mix (4): weights =  0.1409E+03
mix (6): weights =  0.1409E+03
mix (7): weights =  0.1409E+03
mix (3): weights =  0.1409E+03
mix (1): weights =  0.1409E+03
mix (5): weights =  0.1409E+03
mix (2): weights =  0.1409E+03
mix (0): weights =  0.1409E+03
mix (2): G =   0.010000, sum(coeff) = 0.5154E+02, coeff =  0.5154E+02
mix (4): G =   0.010000, sum(coeff) = 0.5154E+02, coeff =  0.5154E+02
mix (6): G =   0.010000, sum(coeff) = 0.5154E+02, coeff =  0.5154E+02
mix (7): G =   0.010000, sum(coeff) = 0.5154E+02, coeff =  0.5154E+02
mix (3): G =   0.010000, sum(coeff) = 0.5154E+02, coeff =  0.5154E+02
mix (1): G =   0.010000, sum(coeff) = 0.5154E+02, coeff =  0.5154E+02
mix (5): G =   0.010000, sum(coeff) = 0.5154E+02, coeff =  0.5154E+02
mix (0): G =   0.010000, sum(coeff) = 0.5154E+02, coeff =  0.5154E+02
   scf:   41    -2327.014376    -2327.014537    -2327.188044  0.001526 -3.502411  0.011756
mix (2): Broyden
mix (2): n_hist = 2 / 2
mix (4): Broyden
mix (4): n_hist = 2 / 2
mix (6): Broyden
mix (6): n_hist = 2 / 2
mix (7): Broyden
mix (7): n_hist = 2 / 2
mix (3): Broyden
mix (3): n_hist = 2 / 2
mix (1): Broyden
mix (1): n_hist = 2 / 2
     spin moment: S , {S} =    1.63746   1.63746   0.00000   0.00000
mix (5): Broyden
mix (5): n_hist = 2 / 2
mix (0): Broyden
mix (0): n_hist = 2 / 2
mix (5): weights =  0.1453E+03
mix (1): weights =  0.1453E+03
mix (2): weights =  0.1453E+03
mix (4): weights =  0.1453E+03
mix (6): weights =  0.1453E+03
mix (7): weights =  0.1453E+03
mix (3): weights =  0.1453E+03
mix (0): weights =  0.1453E+03
mix (5): G =   0.010000, sum(coeff) = 0.1771E+00, coeff =  0.1771E+00
mix (5): saved hist = 1
mix (1): G =   0.010000, sum(coeff) = 0.1771E+00, coeff =  0.1771E+00
mix (1): saved hist = 1
mix (2): G =   0.010000, sum(coeff) = 0.1771E+00, coeff =  0.1771E+00
mix (2): saved hist = 1
mix (4): G =   0.010000, sum(coeff) = 0.1771E+00, coeff =  0.1771E+00
mix (4): saved hist = 1
mix (6): G =   0.010000, sum(coeff) = 0.1771E+00, coeff =  0.1771E+00
mix (6): saved hist = 1
mix (7): G =   0.010000, sum(coeff) = 0.1771E+00, coeff =  0.1771E+00
mix (7): saved hist = 1
mix (0): G =   0.010000, sum(coeff) = 0.1771E+00, coeff =  0.1771E+00
mix: Broyden -- resetting history
mix (0): saved hist = 1
mix (3): G =   0.010000, sum(coeff) = 0.1771E+00, coeff =  0.1771E+00
mix (3): saved hist = 1
   scf:   42    -2327.014443    -2327.014489    -2327.188082  0.000284 -3.502299  0.008608
     spin moment: S , {S} =    1.64081   1.64081   0.00000   0.00000
mix (5): Broyden
mix (1): Broyden
mix (1): n_hist = 2 / 2
mix (2): Broyden
mix (2): n_hist = 2 / 2
mix (4): Broyden
mix (4): n_hist = 2 / 2
mix (6): Broyden
mix (6): n_hist = 2 / 2
mix (0): Broyden
mix (7): Broyden
mix (7): n_hist = 2 / 2
mix (5): n_hist = 2 / 2
mix (0): n_hist = 2 / 2
mix (3): Broyden
mix (3): n_hist = 2 / 2
mix (0): weights =  0.1461E+03
mix (1): weights =  0.1461E+03
mix (2): weights =  0.1461E+03
mix (4): weights =  0.1461E+03
mix (5): weights =  0.1461E+03
mix (6): weights =  0.1461E+03
mix (7): weights =  0.1461E+03
mix (3): weights =  0.1461E+03
mix (7): G =   0.010000, sum(coeff) = 0.2746E+00, coeff =  0.2746E+00
mix (4): G =   0.010000, sum(coeff) = 0.2746E+00, coeff =  0.2746E+00
mix (5): G =   0.010000, sum(coeff) = 0.2746E+00, coeff =  0.2746E+00
mix (6): G =   0.010000, sum(coeff) = 0.2746E+00, coeff =  0.2746E+00
mix (0): G =   0.010000, sum(coeff) = 0.2746E+00, coeff =  0.2746E+00
mix (1): G =   0.010000, sum(coeff) = 0.2746E+00, coeff =  0.2746E+00
mix (2): G =   0.010000, sum(coeff) = 0.2746E+00, coeff =  0.2746E+00
mix (3): G =   0.010000, sum(coeff) = 0.2746E+00, coeff =  0.2746E+00
   scf:   43    -2327.014464    -2327.014476    -2327.188095  0.000092 -3.502215  0.008273
     spin moment: S , {S} =    1.64200   1.64200   0.00000   0.00000
mix (2): Broyden
mix (2): n_hist = 2 / 2
mix (4): Broyden
mix (4): n_hist = 2 / 2
mix (5): Broyden
mix (6): Broyden
mix (1): Broyden
mix (1): n_hist = 2 / 2
mix (0): Broyden
mix (0): n_hist = 2 / 2
mix (7): Broyden
mix (7): n_hist = 2 / 2
mix (5): n_hist = 2 / 2
mix (6): n_hist = 2 / 2
mix (3): Broyden
mix (3): n_hist = 2 / 2
mix (1): weights =  0.1462E+03
mix (0): weights =  0.1462E+03
mix (2): weights =  0.1462E+03
mix (4): weights =  0.1462E+03
mix (7): weights =  0.1462E+03
mix (6): weights =  0.1462E+03
mix (5): weights =  0.1462E+03
mix (3): weights =  0.1462E+03
mix (5): G =   0.010000, sum(coeff) = 0.2794E+01, coeff =  0.2794E+01
mix (1): G =   0.010000, sum(coeff) = 0.2794E+01, coeff =  0.2794E+01
mix (1): saved hist = 1
mix (0): G =   0.010000, sum(coeff) = 0.2794E+01, coeff =  0.2794E+01
mix: Broyden -- resetting history
mix (0): saved hist = 1
mix (2): G =   0.010000, sum(coeff) = 0.2794E+01, coeff =  0.2794E+01
mix (2): saved hist = 1
mix (4): G =   0.010000, sum(coeff) = 0.2794E+01, coeff =  0.2794E+01
mix (4): saved hist = 1
mix (7): G =   0.010000, sum(coeff) = 0.2794E+01, coeff =  0.2794E+01
mix (7): saved hist = 1
mix (6): G =   0.010000, sum(coeff) = 0.2794E+01, coeff =  0.2794E+01
mix (6): saved hist = 1
mix (5): saved hist = 1
mix (3): G =   0.010000, sum(coeff) = 0.2794E+01, coeff =  0.2794E+01
mix (3): saved hist = 1
   scf:   44    -2327.014409    -2327.014442    -2327.188130  0.000268 -3.501927  0.009108
mix (1): Broyden
mix (1): n_hist = 2 / 2
mix (3): Broyden
mix (3): n_hist = 2 / 2
mix (2): Broyden
mix (2): n_hist = 2 / 2
mix (4): Broyden
mix (4): n_hist = 2 / 2
mix (7): Broyden
     spin moment: S , {S} =    1.64560   1.64560   0.00000   0.00000
mix (5): Broyden
mix (5): n_hist = 2 / 2
mix (6): Broyden
mix (6): n_hist = 2 / 2
mix (7): n_hist = 2 / 2
mix (0): Broyden
mix (0): n_hist = 2 / 2
mix (5): weights =  0.1460E+03
mix (6): weights =  0.1460E+03
mix (1): weights =  0.1460E+03
mix (3): weights =  0.1460E+03
mix (2): weights =  0.1460E+03
mix (4): weights =  0.1460E+03
mix (0): weights =  0.1460E+03
mix (7): weights =  0.1460E+03
mix (0): G =   0.010000, sum(coeff) = 0.3003E+00, coeff =  0.3003E+00
mix (4): G =   0.010000, sum(coeff) = 0.3003E+00, coeff =  0.3003E+00
mix (5): G =   0.010000, sum(coeff) = 0.3003E+00, coeff =  0.3003E+00
mix (6): G =   0.010000, sum(coeff) = 0.3003E+00, coeff =  0.3003E+00
mix (3): G =   0.010000, sum(coeff) = 0.3003E+00, coeff =  0.3003E+00
mix (2): G =   0.010000, sum(coeff) = 0.3003E+00, coeff =  0.3003E+00
mix (7): G =   0.010000, sum(coeff) = 0.3003E+00, coeff =  0.3003E+00
mix (1): G =   0.010000, sum(coeff) = 0.3003E+00, coeff =  0.3003E+00
   scf:   45    -2327.014427    -2327.014435    -2327.188143  0.000091 -3.501787  0.009368
     spin moment: S , {S} =    1.64693   1.64693   0.00000   0.00000
mix (2): Broyden
mix (2): n_hist = 2 / 2
mix (4): Broyden
mix (4): n_hist = 2 / 2
mix (6): Broyden
mix (0): Broyden
mix (6): n_hist = 2 / 2
mix (5): Broyden
mix (5): n_hist = 2 / 2
mix (7): Broyden
mix (7): n_hist = 2 / 2
mix (3): Broyden
mix (3): n_hist = 2 / 2
mix (0): n_hist = 2 / 2
mix (1): Broyden
mix (1): n_hist = 2 / 2
mix (3): weights =  0.1459E+03
mix (0): weights =  0.1459E+03
mix (2): weights =  0.1459E+03
mix (4): weights =  0.1459E+03
mix (6): weights =  0.1459E+03
mix (5): weights =  0.1459E+03
mix (7): weights =  0.1459E+03
mix (1): weights =  0.1459E+03
mix (7): G =   0.010000, sum(coeff) = 0.3205E+01, coeff =  0.3205E+01
mix (3): G =   0.010000, sum(coeff) = 0.3205E+01, coeff =  0.3205E+01
mix (3): saved hist = 1
mix (0): G =   0.010000, sum(coeff) = 0.3205E+01, coeff =  0.3205E+01
mix: Broyden -- resetting history
mix (0): saved hist = 1
mix (4): G =   0.010000, sum(coeff) = 0.3205E+01, coeff =  0.3205E+01
mix (4): saved hist = 1
mix (6): G =   0.010000, sum(coeff) = 0.3205E+01, coeff =  0.3205E+01
mix (6): saved hist = 1
mix (2): G =   0.010000, sum(coeff) = 0.3205E+01, coeff =  0.3205E+01
mix (2): saved hist = 1
mix (5): G =   0.010000, sum(coeff) = 0.3205E+01, coeff =  0.3205E+01
mix (5): saved hist = 1
mix (7): saved hist = 1
mix (0): switching mixer --> kick
mix (1): G =   0.010000, sum(coeff) = 0.3205E+01, coeff =  0.3205E+01
mix (1): saved hist = 1
   scf:   46    -2327.014392    -2327.014412    -2327.188183  0.000301 -3.501282  0.010117
mix (1): linear
mix (1): alpha = 0.1000E+00
mix (3): linear
mix (3): alpha = 0.1000E+00
mix (7): linear
mix (7): alpha = 0.1000E+00
mix (4): linear
mix (4): alpha = 0.1000E+00
mix (6): linear
mix (6): alpha = 0.1000E+00
mix (2): linear
mix (2): alpha = 0.1000E+00
     spin moment: S , {S} =    1.65145   1.65145   0.00000   0.00000
mix (5): linear
mix (5): alpha = 0.1000E+00
mix (0): linear
mix (0): alpha = 0.1000E+00
mix (0): switching mixer --> broyden
   scf:   47    -2327.014480    -2327.014446    -2327.188205  0.000132 -3.500758  0.008886
mix (2): Broyden
mix (2): n_hist = 2 / 2
mix (5): Broyden
mix (1): Broyden
mix (1): n_hist = 2 / 2
mix (3): Broyden
mix (3): n_hist = 2 / 2
mix (7): Broyden
mix (7): n_hist = 2 / 2
mix (4): Broyden
mix (4): n_hist = 2 / 2
mix (6): Broyden
mix (6): n_hist = 2 / 2
     spin moment: S , {S} =    1.65392   1.65392   0.00000   0.00000
mix (5): n_hist = 2 / 2
mix (0): Broyden
mix (0): n_hist = 2 / 2
mix (2): weights =  0.1460E+03
mix (5): weights =  0.1460E+03
mix (1): weights =  0.1460E+03
mix (3): weights =  0.1460E+03
mix (7): weights =  0.1460E+03
mix (4): weights =  0.1460E+03
mix (0): weights =  0.1460E+03
mix (6): weights =  0.1460E+03
mix (0): G =   0.010000, sum(coeff) = 0.3215E+01, coeff =  0.3215E+01
mix (4): G =   0.010000, sum(coeff) = 0.3215E+01, coeff =  0.3215E+01
[...]
     spin moment: S , {S} =    1.76893   1.76893   0.00000   0.00000
mix (2): Broyden
mix (2): n_hist = 2 / 2
mix (4): Broyden
mix (4): n_hist = 2 / 2
mix (1): Broyden
mix (1): n_hist = 2 / 2
mix (5): Broyden
mix (6): Broyden
mix (0): Broyden
mix (0): n_hist = 2 / 2
mix (7): Broyden
mix (5): n_hist = 2 / 2
mix (6): n_hist = 2 / 2
mix (7): n_hist = 2 / 2
mix (3): Broyden
mix (3): n_hist = 2 / 2
mix (0): weights =  0.1480E+03
mix (2): weights =  0.1480E+03
mix (4): weights =  0.1480E+03
mix (1): weights =  0.1480E+03
mix (5): weights =  0.1480E+03
mix (7): weights =  0.1480E+03
mix (6): weights =  0.1480E+03
mix (3): weights =  0.1480E+03
mix (1): G =   0.010000, sum(coeff) = 0.1140E+00, coeff =  0.1140E+00
mix (6): G =   0.010000, sum(coeff) = 0.1140E+00, coeff =  0.1140E+00
mix (5): G =   0.010000, sum(coeff) = 0.1140E+00, coeff =  0.1140E+00
mix (0): G =   0.010000, sum(coeff) = 0.1140E+00, coeff =  0.1140E+00
mix (2): G =   0.010000, sum(coeff) = 0.1140E+00, coeff =  0.1140E+00
mix (4): G =   0.010000, sum(coeff) = 0.1140E+00, coeff =  0.1140E+00
mix (7): G =   0.010000, sum(coeff) = 0.1140E+00, coeff =  0.1140E+00
mix (3): G =   0.010000, sum(coeff) = 0.1140E+00, coeff =  0.1140E+00
   scf:  122    -2327.014674    -2327.014674    -2327.188648  0.000003 -3.497626  0.001367
     spin moment: S , {S} =    1.76897   1.76897   0.00000   0.00000
mix (1): Broyden
mix (1): n_hist = 2 / 2
mix (6): Broyden
mix (5): Broyden
mix (2): Broyden
mix (2): n_hist = 2 / 2
mix (4): Broyden
mix (4): n_hist = 2 / 2
mix (7): Broyden
mix (7): n_hist = 2 / 2
mix (0): Broyden
mix (0): n_hist = 2 / 2
mix (6): n_hist = 2 / 2
mix (5): n_hist = 2 / 2
mix (3): Broyden
mix (3): n_hist = 2 / 2
mix (4): weights =  0.1480E+03
mix (1): weights =  0.1480E+03
mix (0): weights =  0.1480E+03
mix (2): weights =  0.1480E+03
mix (7): weights =  0.1480E+03
mix (5): weights =  0.1480E+03
mix (6): weights =  0.1480E+03
mix (3): weights =  0.1480E+03
mix (6): G =   0.010000, sum(coeff) = 0.1140E+00, coeff =  0.1140E+00
mix (6): saved hist = 1
mix (2): G =   0.010000, sum(coeff) = 0.1140E+00, coeff =  0.1140E+00
mix (2): saved hist = 1
mix (4): G =   0.010000, sum(coeff) = 0.1140E+00, coeff =  0.1140E+00
mix (4): saved hist = 1
mix (1): G =   0.010000, sum(coeff) = 0.1140E+00, coeff =  0.1140E+00
mix (1): saved hist = 1
mix (7): G =   0.010000, sum(coeff) = 0.1140E+00, coeff =  0.1140E+00
mix (7): saved hist = 1
mix (5): G =   0.010000, sum(coeff) = 0.1140E+00, coeff =  0.1140E+00
mix (5): saved hist = 1
mix (0): G =   0.010000, sum(coeff) = 0.1140E+00, coeff =  0.1140E+00
mix: Broyden -- resetting history
mix (0): saved hist = 1
mix (0): switching mixer --> kick
mix (3): G =   0.010000, sum(coeff) = 0.1140E+00, coeff =  0.1140E+00
mix (3): saved hist = 1
   scf:  123    -2327.014674    -2327.014674    -2327.188648  0.000003 -3.497627  0.001364
     spin moment: S , {S} =    1.76902   1.76902   0.00000   0.00000
mix (6): linear
mix (2): linear
mix (2): alpha = 0.1000E+00
mix (4): linear
mix (4): alpha = 0.1000E+00
mix (1): linear
mix (1): alpha = 0.1000E+00
mix (5): linear
mix (5): alpha = 0.1000E+00
mix (0): linear
mix (0): alpha = 0.1000E+00
mix (0): switching mixer --> broyden
mix (6): alpha = 0.1000E+00
mix (7): linear
mix (7): alpha = 0.1000E+00
mix (3): linear
mix (3): alpha = 0.1000E+00
   scf:  124    -2327.014675    -2327.014674    -2327.188649  0.000024 -3.497634  0.001341
mix (3): Broyden
mix (2): Broyden
mix (4): Broyden
mix (1): Broyden
     spin moment: S , {S} =    1.76942   1.76942   0.00000   0.00000
mix (7): Broyden
mix (5): Broyden
mix (1): n_hist = 2 / 2
mix (3): n_hist = 2 / 2
mix (2): n_hist = 2 / 2
mix (6): Broyden
mix (4): n_hist = 2 / 2
mix (7): n_hist = 2 / 2
mix (5): n_hist = 2 / 2
mix (6): n_hist = 2 / 2
mix (0): Broyden
mix (0): n_hist = 2 / 2
mix (6): weights =  0.1480E+03
mix (4): weights =  0.1480E+03
mix (7): weights =  0.1480E+03
mix (1): weights =  0.1480E+03
mix (3): weights =  0.1480E+03
mix (2): weights =  0.1480E+03
mix (5): weights =  0.1480E+03
mix (0): weights =  0.1480E+03
mix (5): G =   0.010000, sum(coeff) = 0.1078E+01, coeff =  0.1078E+01
mix (6): G =   0.010000, sum(coeff) = 0.1078E+01, coeff =  0.1078E+01
mix (4): G =   0.010000, sum(coeff) = 0.1078E+01, coeff =  0.1078E+01
mix (7): G =   0.010000, sum(coeff) = 0.1078E+01, coeff =  0.1078E+01
mix (1): G =   0.010000, sum(coeff) = 0.1078E+01, coeff =  0.1078E+01
mix (3): G =   0.010000, sum(coeff) = 0.1078E+01, coeff =  0.1078E+01
mix (2): G =   0.010000, sum(coeff) = 0.1078E+01, coeff =  0.1078E+01
mix (0): G =   0.010000, sum(coeff) = 0.1078E+01, coeff =  0.1078E+01
   scf:  125    -2327.014675    -2327.014675    -2327.188649  0.000031 -3.497643  0.001311
     spin moment: S , {S} =    1.76993   1.76993   0.00000   0.00000
mix (2): Broyden
mix (2): n_hist = 2 / 2
mix (5): Broyden
mix (6): Broyden
mix (4): Broyden
mix (4): n_hist = 2 / 2
mix (1): Broyden
mix (1): n_hist = 2 / 2
mix (0): Broyden
mix (0): n_hist = 2 / 2
mix (5): n_hist = 2 / 2
mix (6): n_hist = 2 / 2
mix (7): Broyden
mix (7): n_hist = 2 / 2
mix (3): Broyden
mix (3): n_hist = 2 / 2
mix (1): weights =  0.1481E+03
mix (2): weights =  0.1481E+03
mix (0): weights =  0.1481E+03
mix (4): weights =  0.1481E+03
mix (5): weights =  0.1481E+03
mix (6): weights =  0.1481E+03
mix (7): weights =  0.1481E+03
mix (3): weights =  0.1481E+03
mix (7): G =   0.010000, sum(coeff) = 0.1217E+01, coeff =  0.1217E+01
mix (1): G =   0.010000, sum(coeff) = 0.1217E+01, coeff =  0.1217E+01
mix (1): saved hist = 1
mix (2): G =   0.010000, sum(coeff) = 0.1217E+01, coeff =  0.1217E+01
mix (2): saved hist = 1
mix (4): G =   0.010000, sum(coeff) = 0.1217E+01, coeff =  0.1217E+01
mix (4): saved hist = 1
mix (5): G =   0.010000, sum(coeff) = 0.1217E+01, coeff =  0.1217E+01
mix (5): saved hist = 1
mix (0): G =   0.010000, sum(coeff) = 0.1217E+01, coeff =  0.1217E+01
mix: Broyden -- resetting history
mix (0): saved hist = 1
mix (6): G =   0.010000, sum(coeff) = 0.1217E+01, coeff =  0.1217E+01
mix (6): saved hist = 1
mix (7): saved hist = 1
mix (3): G =   0.010000, sum(coeff) = 0.1217E+01, coeff =  0.1217E+01
mix (3): saved hist = 1
   scf:  126    -2327.014675    -2327.014675    -2327.188651  0.000066 -3.497662  0.001246
mix (1): Broyden
mix (1): n_hist = 2 / 2
mix (2): Broyden
mix (2): n_hist = 2 / 2
mix (4): Broyden
mix (4): n_hist = 2 / 2
mix (5): Broyden
mix (3): Broyden
mix (3): n_hist = 2 / 2
     spin moment: S , {S} =    1.77104   1.77104   0.00000   0.00000
mix (7): Broyden
mix (7): n_hist = 2 / 2
mix (6): Broyden
mix (6): n_hist = 2 / 2
mix (5): n_hist = 2 / 2
mix (0): Broyden
mix (0): n_hist = 2 / 2
mix (7): weights =  0.1481E+03
mix (3): weights =  0.1481E+03
mix (1): weights =  0.1481E+03
mix (2): weights =  0.1481E+03
mix (4): weights =  0.1481E+03
mix (6): weights =  0.1481E+03
mix (0): weights =  0.1481E+03
mix (5): weights =  0.1481E+03
mix (6): G =   0.010000, sum(coeff) = 0.2192E+01, coeff =  0.2192E+01
mix (7): G =   0.010000, sum(coeff) = 0.2192E+01, coeff =  0.2192E+01
mix (3): G =   0.010000, sum(coeff) = 0.2192E+01, coeff =  0.2192E+01
mix (1): G =   0.010000, sum(coeff) = 0.2192E+01, coeff =  0.2192E+01
mix (2): G =   0.010000, sum(coeff) = 0.2192E+01, coeff =  0.2192E+01
mix (4): G =   0.010000, sum(coeff) = 0.2192E+01, coeff =  0.2192E+01
mix (5): G =   0.010000, sum(coeff) = 0.2192E+01, coeff =  0.2192E+01
mix (0): G =   0.010000, sum(coeff) = 0.2192E+01, coeff =  0.2192E+01
   scf:  127    -2327.014677    -2327.014676    -2327.188653  0.000146 -3.497705  0.001102
mix (4): Broyden
mix (3): Broyden
mix (1): Broyden
mix (2): Broyden
mix (2): n_hist = 2 / 2
     spin moment: S , {S} =    1.77351   1.77351   0.00000   0.00000
mix (5): Broyden
mix (6): Broyden
mix (7): Broyden
mix (7): n_hist = 2 / 2
mix (4): n_hist = 2 / 2
mix (3): n_hist = 2 / 2
mix (1): n_hist = 2 / 2
mix (5): n_hist = 2 / 2
mix (6): n_hist = 2 / 2
mix (0): Broyden
mix (0): n_hist = 2 / 2
mix (2): weights =  0.1481E+03
mix (1): weights =  0.1481E+03
mix (5): weights =  0.1481E+03
mix (7): weights =  0.1481E+03
mix (4): weights =  0.1481E+03
mix (3): weights =  0.1481E+03
mix (0): weights =  0.1481E+03
mix (6): weights =  0.1481E+03
mix (0): G =   0.010000, sum(coeff) = 0.2980E+01, coeff =  0.2980E+01
mix (3): G =   0.010000, sum(coeff) = 0.2980E+01, coeff =  0.2980E+01
mix (3): saved hist = 1
mix (2): G =   0.010000, sum(coeff) = 0.2980E+01, coeff =  0.2980E+01
mix (2): saved hist = 1
mix (1): G =   0.010000, sum(coeff) = 0.2980E+01, coeff =  0.2980E+01
mix (1): saved hist = 1
mix (5): G =   0.010000, sum(coeff) = 0.2980E+01, coeff =  0.2980E+01
mix (5): saved hist = 1
mix (7): G =   0.010000, sum(coeff) = 0.2980E+01, coeff =  0.2980E+01
mix (7): saved hist = 1
mix (4): G =   0.010000, sum(coeff) = 0.2980E+01, coeff =  0.2980E+01
mix (4): saved hist = 1
mix (6): G =   0.010000, sum(coeff) = 0.2980E+01, coeff =  0.2980E+01
mix (6): saved hist = 1
mix: Broyden -- resetting history
mix (0): saved hist = 1
   scf:  128    -2327.014684    -2327.014677    -2327.188658  0.000437 -3.497833  0.000672
mix (4): Broyden
mix (4): n_hist = 2 / 2
mix (6): Broyden
mix (3): Broyden
mix (3): n_hist = 2 / 2
mix (2): Broyden
mix (2): n_hist = 2 / 2
mix (1): Broyden
mix (1): n_hist = 2 / 2
mix (5): Broyden
mix (5): n_hist = 2 / 2
mix (7): Broyden
mix (7): n_hist = 2 / 2
     spin moment: S , {S} =    1.78089   1.78089   0.00000   0.00000
mix (6): n_hist = 2 / 2
mix (0): Broyden
mix (0): n_hist = 2 / 2
mix (4): weights =  0.1482E+03
mix (6): weights =  0.1482E+03
mix (3): weights =  0.1482E+03
mix (2): weights =  0.1482E+03
mix (1): weights =  0.1482E+03
mix (5): weights =  0.1482E+03
mix (0): weights =  0.1482E+03
mix (7): weights =  0.1482E+03
mix (0): G =   0.010000, sum(coeff) = 0.1302E+01, coeff =  0.1302E+01
mix (5): G =   0.010000, sum(coeff) = 0.1302E+01, coeff =  0.1302E+01
mix (4): G =   0.010000, sum(coeff) = 0.1302E+01, coeff =  0.1302E+01
mix (6): G =   0.010000, sum(coeff) = 0.1302E+01, coeff =  0.1302E+01
mix (3): G =   0.010000, sum(coeff) = 0.1302E+01, coeff =  0.1302E+01
mix (2): G =   0.010000, sum(coeff) = 0.1302E+01, coeff =  0.1302E+01
mix (7): G =   0.010000, sum(coeff) = 0.1302E+01, coeff =  0.1302E+01
mix (1): G =   0.010000, sum(coeff) = 0.1302E+01, coeff =  0.1302E+01
   scf:  129    -2327.014681    -2327.014673    -2327.188661  0.000570 -3.497997  0.000198
     spin moment: S , {S} =    1.79050   1.79050   0.00000   0.00000
mix (2): Broyden
mix (4): Broyden
mix (2): n_hist = 2 / 2
mix (6): Broyden
mix (4): n_hist = 2 / 2
mix (0): Broyden
mix (6): n_hist = 2 / 2
mix (0): n_hist = 2 / 2
mix (1): Broyden
mix (5): Broyden
mix (3): Broyden
mix (7): Broyden
mix (7): n_hist = 2 / 2
mix (1): n_hist = 2 / 2
mix (5): n_hist = 2 / 2
mix (3): n_hist = 2 / 2
mix (4): weights =  0.1484E+03
mix (0): weights =  0.1484E+03
mix (2): weights =  0.1484E+03
mix (1): weights =  0.1484E+03
mix (7): weights =  0.1484E+03
mix (6): weights =  0.1484E+03
mix (5): weights =  0.1484E+03
mix (3): weights =  0.1484E+03
mix (5): G =   0.010000, sum(coeff) = 0.1783E-01, coeff =  0.1783E-01
mix (5): saved hist = 1
mix (4): G =   0.010000, sum(coeff) = 0.1783E-01, coeff =  0.1783E-01
mix (4): saved hist = 1
mix (1): G =   0.010000, sum(coeff) = 0.1783E-01, coeff =  0.1783E-01
mix (1): saved hist = 1
mix (7): G =   0.010000, sum(coeff) = 0.1783E-01, coeff =  0.1783E-01
mix (7): saved hist = 1
mix (0): G =   0.010000, sum(coeff) = 0.1783E-01, coeff =  0.1783E-01
mix: Broyden -- resetting history
mix (0): saved hist = 1
mix (2): G =   0.010000, sum(coeff) = 0.1783E-01, coeff =  0.1783E-01
mix (2): saved hist = 1
mix (6): G =   0.010000, sum(coeff) = 0.1783E-01, coeff =  0.1783E-01
mix (6): saved hist = 1
mix (3): G =   0.010000, sum(coeff) = 0.1783E-01, coeff =  0.1783E-01
mix (3): saved hist = 1
   scf:  130    -2327.014672    -2327.014673    -2327.188661  0.000010 -3.498000  0.000107
mix (4): linear
mix (4): alpha = 0.2500E-01
mix (1): linear
mix (1): alpha = 0.2500E-01
mix (7): linear
mix (7): alpha = 0.2500E-01
mix (3): linear
mix (3): alpha = 0.2500E-01
mix (2): linear
mix (2): alpha = 0.2500E-01
     spin moment: S , {S} =    1.79067   1.79067   0.00000   0.00000
mix (6): linear
mix (6): alpha = 0.2500E-01
mix (5): linear
mix (5): alpha = 0.2500E-01

SCF Convergence by DM+H criterion
max |DM_out - DM_in|         :     0.0000102759
max |H_out - H_in|      (eV) :     0.0001067536
SCF cycle converged after 130 iterations

:!: SCF cycle continuation mixer: linear-after
mix (0): linear
mix (0): alpha = 0.2500E-01
   scf:  131    -2327.014671    -2327.014672    -2327.188661  0.000002 -3.498001  0.000101
     spin moment: S , {S} =    1.79069   1.79069   0.00000   0.00000

SCF Convergence by DM+H criterion
max |DM_out - DM_in|         :     0.0000015751
max |H_out - H_in|      (eV) :     0.0001006110
SCF cycle converged after 131 iterations
mix (2): resetting history of all mixers
mix (1): resetting history of all mixers
mix (3): resetting history of all mixers
mix (4): resetting history of all mixers
mix (5): resetting history of all mixers
mix (6): resetting history of all mixers
mix (7): resetting history of all mixers
mix (0): resetting history of all mixers

Using DM_out to compute the final energy and forces
No. of atoms with KB's overlaping orbs in proc 0. Max # of overlaps:       3      45

siesta: E_KS(eV) =            -2327.0147

siesta: E_KS - E_eggbox =     -2327.0147
     spin moment: S , {S} =    1.79069   1.79069   0.00000   0.00000

siesta: Atomic forces (eV/Ang):
----------------------------------------
   Tot    0.000000   -0.000000   -0.000000
----------------------------------------
   Max    0.055668
   Res    0.026242    sqrt( Sum f_i^2 / 3N )
----------------------------------------
   Max    0.055668    constrained

Stress tensor Voigt[x,y,z,yz,xz,xy] (kbar):        6.66        6.66       -1.58       -0.00       -0.00        0.00
(Free)E + p*V (eV/cell)    -2328.2321
Target enthalpy (eV/cell)    -2327.1887

mulliken: Atomic and Orbital Populations:

Species: fe_nc               

Atom      Orb        Charge      Spin       Svec
----------------------------------------------------------------
    1  1 4s         1.33940   0.02203     -0.014   0.000  -0.017
    1  2 4s         0.10624   0.06317      0.004   0.000   0.063
    1  3 3dxy       1.22801   0.65158      0.059   0.000   0.649
    1  4 3dyz       1.24666   0.48503     -0.000   0.000   0.485
    1  5 3dz2       1.27153   0.47663      0.011   0.000   0.477
    1  6 3dxz       1.24666   0.48503     -0.000   0.000   0.485
    1  7 3dx2-y2    1.22661   0.65303      0.059   0.000   0.650
    1  8 3dxy       0.04755   0.06833      0.010   0.000   0.068
    1  9 3dyz       0.03198   0.06030      0.004   0.000   0.060
    1 10 3dz2       0.07235   0.04664      0.003   0.000   0.047
    1 11 3dxz       0.03198   0.06030      0.004   0.000   0.060
    1 12 3dx2-y2    0.04752   0.06830      0.010   0.000   0.068
    1 13 4Ppy       0.02839   0.00572      0.001   0.000  -0.006
    1 14 4Ppz       0.00639   0.00473      0.004   0.000   0.002
    1 15 4Ppx       0.02839   0.00572      0.001   0.000  -0.006
    1     Total     7.95967   3.08857      0.157   0.000   3.085

    2  1 4s         0.86577   0.01542     -0.015   0.000   0.000
    2  2 4s         0.19009   0.03206      0.032   0.000   0.000
    2  3 3dxy       1.43227   0.46914      0.469   0.000   0.000
    2  4 3dyz       1.29873   0.11925      0.119   0.000  -0.000
    2  5 3dz2       1.17811   0.13287      0.133   0.000   0.000
    2  6 3dxz       1.29873   0.11925      0.119   0.000  -0.000
    2  7 3dx2-y2    1.43194   0.46954      0.470   0.000   0.000
    2  8 3dxy       0.00172   0.03724      0.037   0.000  -0.000
    2  9 3dyz      -0.01662   0.01897      0.019   0.000  -0.000
    2 10 3dz2       0.07437   0.00958      0.010   0.000  -0.000
    2 11 3dxz      -0.01662   0.01897      0.019   0.000  -0.000
    2 12 3dx2-y2    0.00166   0.03720      0.037   0.000  -0.000
    2 13 4Ppy       0.11940   0.01145      0.011   0.000  -0.000
    2 14 4Ppz       0.10173   0.00419      0.004   0.000   0.000
    2 15 4Ppx       0.11940   0.01145      0.011   0.000  -0.000
    2     Total     8.08066   1.47574      1.476   0.000   0.000

    3  1 4s         1.33940   0.02203     -0.014   0.000   0.017
    3  2 4s         0.10624   0.06317      0.004   0.000  -0.063
    3  3 3dxy       1.22801   0.65158      0.059   0.000  -0.649
    3  4 3dyz       1.24666   0.48503     -0.000   0.000  -0.485
    3  5 3dz2       1.27153   0.47663      0.011   0.000  -0.477
    3  6 3dxz       1.24666   0.48503     -0.000   0.000  -0.485
    3  7 3dx2-y2    1.22661   0.65303      0.059   0.000  -0.650
    3  8 3dxy       0.04755   0.06833      0.010   0.000  -0.068
    3  9 3dyz       0.03198   0.06030      0.004   0.000  -0.060
    3 10 3dz2       0.07235   0.04664      0.003   0.000  -0.047
    3 11 3dxz       0.03198   0.06030      0.004   0.000  -0.060
    3 12 3dx2-y2    0.04752   0.06830      0.010   0.000  -0.068
    3 13 4Ppy       0.02839   0.00572      0.001   0.000   0.006
    3 14 4Ppz       0.00639   0.00473      0.004   0.000  -0.002
    3 15 4Ppx       0.02839   0.00572      0.001   0.000   0.006
    3     Total     7.95967   3.08857      0.157   0.000  -3.085

----------------------------------------------------------------
Total              24.00000   1.79069      1.791   0.000   0.000


siesta: Program's energy decomposition (eV):
siesta: Ebs     =      -138.244655
siesta: Eions   =      2141.484345
siesta: Ena     =        95.469235
siesta: Ekin    =      2356.539520
siesta: Enl     =     -1464.238592
siesta: Eso     =         0.000000
siesta: Edftu   =         0.000000
siesta: DEna    =       -28.366405
siesta: DUscf   =         2.904794
siesta: DUext   =         0.000000
siesta: Exc     =     -1147.838878
siesta: eta*DQ  =         0.000000
siesta: Emadel  =         0.000000
siesta: Emeta   =         0.000000
siesta: Emolmec =         0.000000
siesta: Ekinion =         0.000000
siesta: Eharris =     -2327.014671
siesta: Etot    =     -2327.014672
siesta: FreeEng =     -2327.188661

siesta: Final energy (eV):
siesta:  Band Struct. =    -138.244655
siesta:       Kinetic =    2356.539520
siesta:       Hartree =    1407.459491
siesta:       Edftu   =       0.000000
siesta:       Eso     =       0.000000
siesta:    Ext. field =       0.000000
siesta:   Exch.-corr. =   -1147.838878
siesta:  Ion-electron =   -4749.476954
siesta:       Ion-ion =    -193.697851
siesta:       Ekinion =       0.000000
siesta:         Total =   -2327.014672
siesta:         Fermi =      -3.498001

siesta: Atomic forces (eV/Ang):
siesta:      1   -0.000000   -0.000000   -0.055668
siesta:      2    0.000000    0.000000    0.000000
siesta:      3   -0.000000    0.000000    0.055668
siesta: ----------------------------------------
siesta:    Tot    0.000000   -0.000000   -0.000000

siesta: Stress tensor (static) (eV/Ang**3):
siesta:     0.004160    0.000000   -0.000000
siesta:     0.000000    0.004160   -0.000000
siesta:    -0.000000   -0.000000   -0.000985

siesta: Cell volume =        426.771459 Ang**3

siesta: Pressure (static):
siesta:                Solid            Molecule  Units
siesta:          -0.00002663         -0.00002480  Ry/Bohr**3
siesta:          -0.00244496         -0.00227727  eV/Ang**3
siesta:          -3.91730076         -3.64863276  kBar
(Free)E+ p_basis*V_orbitals  =       -2324.918732
(Free)Eharris+ p_basis*V_orbitals  =       -2324.918732
     spin moment: S , {S} =    1.79069   1.79069   0.00000   0.00000

cite: Please see "scfmix.bib" for an exhaustive BiBTeX file.
cite: Please clearly indicate Siesta version in published work: v4.1-b4-351
cite: This calculation has made use of the following articles
cite: which are encouraged to be cited in a published work.
        Primary SIESTA paper
          DOI: www.doi.org/10.1088/0953-8984/14/11/302

>> End of run:  22-JAN-2021  23:22:45
Job completed
