Siesta Version: siesta-3.2
Architecture  : SIESTA_ARCH
Compiler flags: FFLAGS
PARALLEL version
NetCDF support

* Running on    4 nodes in parallel
>> Start of run:  24-MAR-2013  18:44:47

                           ***********************       
                           *  WELCOME TO SIESTA  *       
                           ***********************       

reinit: Reading from standard input
************************** Dump of input data file ****************************
SystemName   Si bulk optical
SystemLabel         si-optical
NumberOfAtoms       2
NumberOfSpecies     1
%block ChemicalSpeciesLabel
 1  14  Si
%endblock ChemicalSpeciesLabel
PAO.BasisSize       DZP
PAO.EnergyShift     150 meV
LatticeConstant     5.430 Ang
%block LatticeVectors
  0.000  0.500  0.500
  0.500  0.000  0.500
  0.500  0.500  0.000
%endblock LatticeVectors
%block kgrid_Monkhorst_Pack
   5  0 0  0.
   0  5 0  0.
   0  0 5  0.
%endblock kgrid_Monkhorst_Pack
MeshCutoff          150.0 Ry
MaxSCFIterations    50
DM.MixingWeight      0.3
DM.NumberPulay       3
DM.Tolerance         1.d-4
DM.UseSaveDM      .true.
SolutionMethod       diagon
ElectronicTemperature  25 meV
MD.TypeOfRun         cg
MD.NumCGsteps        0
MD.MaxCGDispl         0.1  Ang
MD.MaxForceTol        0.04 eV/Ang
AtomicCoordinatesFormat  ScaledCartesian
%block AtomicCoordinatesAndAtomicSpecies
    0.000    0.000    0.000   1 #  Si  1
    0.250    0.250    0.250   1 #  Si  2
%endblock AtomicCoordinatesAndAtomicSpecies
OpticalCalculation .true.
%block  Optical.Mesh
      20 20 20
%endblock  Optical.Mesh
Optical.OffsetMesh .true.
Optical.PolarizationType polarized
%block  Optical.Vector
          1.0 0.0 0.0
%endblock  Optical.Vector
Optical.Broaden 0.2 eV
Optical.EnergyMaximum  20.0 eV
Optical.EnergyMinimum  0.0 eV
************************** End of input data file *****************************

reinit: -----------------------------------------------------------------------
reinit: System Name: Si bulk optical
reinit: -----------------------------------------------------------------------
reinit: System Label: si-optical                                                  
reinit: -----------------------------------------------------------------------

initatom: Reading input for the pseudopotentials and atomic orbitals ----------
 Species number:            1  Label: Si Atomic number:          14
Ground state valence configuration:   3s02  3p02
Reading pseudopotential information in formatted form from Si.psf

Valence configuration for pseudopotential generation:
3s( 2.00) rc: 1.89
3p( 2.00) rc: 1.89
3d( 0.00) rc: 1.89
4f( 0.00) rc: 1.89
For Si, standard SIESTA heuristics set lmxkb to 3
 (one more than the basis l, including polarization orbitals).
Use PS.lmax or PS.KBprojectors blocks to override.

<basis_specs>
===============================================================================
Si                   Z=  14    Mass=  28.090        Charge= 0.17977+309
Lmxo=1 Lmxkb= 3    BasisType=split      Semic=F
L=0  Nsemic=0  Cnfigmx=3
          n=1  nzeta=2  polorb=0
            splnorm:   0.15000    
               vcte:    0.0000    
               rinn:    0.0000    
                rcs:    0.0000      0.0000    
            lambdas:    1.0000      1.0000    
L=1  Nsemic=0  Cnfigmx=3
          n=1  nzeta=2  polorb=1
            splnorm:   0.15000    
               vcte:    0.0000    
               rinn:    0.0000    
                rcs:    0.0000      0.0000    
            lambdas:    1.0000      1.0000    
-------------------------------------------------------------------------------
L=0  Nkbl=1  erefs: 0.17977+309
L=1  Nkbl=1  erefs: 0.17977+309
L=2  Nkbl=1  erefs: 0.17977+309
L=3  Nkbl=1  erefs: 0.17977+309
===============================================================================
</basis_specs>

atom: Called for Si                    (Z =  14)

read_vps: Pseudopotential generation method:
read_vps: ATM3      Troullier-Martins                       
Total valence charge:    4.00000

xc_check: Exchange-correlation functional:
xc_check: Ceperley-Alder
V l=0 = -2*Zval/r beyond r=  2.5494
V l=1 = -2*Zval/r beyond r=  2.5494
V l=2 = -2*Zval/r beyond r=  2.5494
V l=3 = -2*Zval/r beyond r=  2.5494
All V_l potentials equal beyond r=  1.8652
This should be close to max(r_c) in ps generation
All pots = -2*Zval/r beyond r=  2.5494
Using large-core scheme for Vlocal

atom: Estimated core radius    2.54944

atom: Including non-local core corrections could be a good idea
atom: Maximum radius for 4*pi*r*r*local-pseudopot. charge    2.85303
atom: Maximum radius for r*vlocal+2*Zval:    2.58151
GHOST: No ghost state for L =  0
GHOST: No ghost state for L =  1
GHOST: No ghost state for L =  2
GHOST: No ghost state for L =  3

KBgen: Kleinman-Bylander projectors: 
   l= 0   rc=  1.936440   el= -0.796617   Ekb=  4.661340   kbcos=  0.299756
   l= 1   rc=  1.936440   el= -0.307040   Ekb=  1.494238   kbcos=  0.301471
   l= 2   rc=  1.936440   el=  0.002313   Ekb= -2.808672   kbcos= -0.054903
   l= 3   rc=  1.936440   el=  0.003402   Ekb= -0.959059   kbcos= -0.005513

KBgen: Total number of  Kleinman-Bylander projectors:   16
atom: -------------------------------------------------------------------------

atom: SANKEY-TYPE ORBITALS:
atom: Selected multiple-zeta basis: split     

SPLIT: Orbitals with angular momentum L= 0

SPLIT: Basis orbitals for state 3s

SPLIT: PAO cut-off radius determined from an
SPLIT: energy shift=  0.011025 Ry

   izeta = 1
                 lambda =    1.000000
                     rc =    5.397360
                 energy =   -0.786473
                kinetic =    0.546491
    potential(screened) =   -1.332964
       potential(ionic) =   -3.793893

   izeta = 2
                 rmatch =    4.474538
              splitnorm =    0.150000
                 energy =   -0.690041
                kinetic =    0.854339
    potential(screened) =   -1.544380
       potential(ionic) =   -4.120474

SPLIT: Orbitals with angular momentum L= 1

SPLIT: Basis orbitals for state 3p

SPLIT: PAO cut-off radius determined from an
SPLIT: energy shift=  0.011025 Ry

   izeta = 1
                 lambda =    1.000000
                     rc =    6.759281
                 energy =   -0.296247
                kinetic =    0.842488
    potential(screened) =   -1.138735
       potential(ionic) =   -3.376011

   izeta = 2
                 rmatch =    5.134119
              splitnorm =    0.150000
                 energy =   -0.218507
                kinetic =    1.203589
    potential(screened) =   -1.422096
       potential(ionic) =   -3.849939

POLgen: Perturbative polarization orbital with L=  2

POLgen: Polarization orbital for state 3p

   izeta = 1
                     rc =    6.759281
                 energy =    0.389257
                kinetic =    1.210202
    potential(screened) =   -0.820945
       potential(ionic) =   -2.844820
atom: Total number of Sankey-type orbitals: 13

atm_pop: Valence configuration (for local Pseudopot. screening):
 3s( 2.00)                                                            
 3p( 2.00)                                                            
Vna: chval, zval:    4.00000   4.00000

Vna:  Cut-off radius for the neutral-atom potential:   6.759281

atom: _________________________________________________________________________

prinput: Basis input ----------------------------------------------------------

PAO.BasisType split     

%block ChemicalSpeciesLabel
    1   14 Si                      # Species index, atomic number, species label
%endblock ChemicalSpeciesLabel

%block PAO.Basis                 # Define Basis set
Si                    2                    # Species label, number of l-shells
 n=3   0   2                         # n, l, Nzeta 
   5.397      4.475   
   1.000      1.000   
 n=3   1   2 P   1                   # n, l, Nzeta, Polarization, NzetaPol
   6.759      5.134   
   1.000      1.000   
%endblock PAO.Basis

prinput: ----------------------------------------------------------------------

Dumping basis to NetCDF file Si.ion.nc
coor:   Atomic-coordinates input format  =     Cartesian coordinates
coor:                                          (in units of alat)

siesta: Atomic coordinates (Bohr) and species
siesta:      0.00000   0.00000   0.00000  1        1
siesta:      2.56530   2.56530   2.56530  1        2

siesta: System type = bulk      

initatomlists: Number of atoms, orbitals, and projectors:      2    26    32

siesta: ******************** Simulation parameters ****************************
siesta:
siesta: The following are some of the parameters of the simulation.
siesta: A complete list of the parameters used, including default values,
siesta: can be found in file out.fdf
siesta:
redata: Non-Collinear-spin run           =     F
redata: SpinPolarized (Up/Down) run      =     F
redata: Number of spin components        =     1
redata: Long output                      =     F
redata: Number of Atomic Species         =        1
redata: Charge density info will appear in .RHO file
redata: Write Mulliken Pop.              =     NO
redata: Mesh Cutoff                      =   150.0000  Ry
redata: Net charge of the system         =     0.0000 |e|
redata: Max. number of SCF Iter          =       50
redata: Performing Pulay mixing using    =     3 iterations
redata: Mix DM in first SCF step ?       =     F
redata: Write Pulay info on disk?        =     F
redata: Discard 1st Pulay DM after  kick =     F
redata: New DM Mixing Weight             =     0.3000
redata: New DM Occupancy tolerance       = 0.000000000001
redata: No kicks to SCF
redata: DM Mixing Weight for Kicks       =     0.5000
redata: DM Tolerance for SCF             =     0.000100
redata: Require Energy convergence for SCF =     F
redata: DM Energy tolerance for SCF      =     0.000100 eV
redata: Require Harris convergence for SCF =     F
redata: DM Harris energy tolerance for SCF =     0.000100 eV
redata: Using Saved Data (generic)   =     F
redata: Use continuation files for DM    =     T
redata: Neglect nonoverlap interactions  =     F
redata: Method of Calculation            =     Diagonalization
redata: Divide and Conquer               =     T
redata: Electronic Temperature           =     0.0018  Ry
redata: Fix the spin of the system       =     F
redata: Dynamics option                  =     CG coord. optimization
redata: Variable cell                    =     F
redata: Use continuation files for CG    =     F
redata: Max atomic displ per move        =     0.1890  Bohr
redata: Maximum number of CG moves       =        0
redata: Force tolerance                  =     0.0016  Ry/Bohr
redata: ***********************************************************************
Total number of electrons:     8.000000
Total ionic charge:     8.000000

* ProcessorY, Blocksize:    2   7

 Kpoints in:           75 . Kpoints trimmed:           63

siesta: k-grid: Number of k-points =    63
siesta: k-grid: Cutoff (effective) =     9.599 Ang
siesta: k-grid: Supercell and displacements
siesta: k-grid:    5   0   0      0.000
siesta: k-grid:    0   5   0      0.000
siesta: k-grid:    0   0   5      0.000
Naive supercell factors:     5    5    5

superc: Internal auxiliary supercell:     5 x     5 x     5  =     125
superc: Number of atoms, orbitals, and projectors:    250   3250   4000

* Maximum dynamic memory allocated =     1 MB

siesta:                 ==============================
                            Begin CG move =      0
                        ==============================

superc: Internal auxiliary supercell:     5 x     5 x     5  =     125
superc: Number of atoms, orbitals, and projectors:    250   3250   4000

outcell: Unit cell vectors (Ang):
        0.000000    2.715000    2.715000
        2.715000    0.000000    2.715000
        2.715000    2.715000    0.000000

outcell: Cell vector modules (Ang)   :    3.839590    3.839590    3.839590
outcell: Cell angles (23,13,12) (deg):     60.0000     60.0000     60.0000
outcell: Cell volume (Ang**3)        :     40.0258
New_DM. Step:     1
Initializing Density Matrix...

InitMesh: MESH =    24 x    24 x    24 =       13824
InitMesh: Mesh cutoff (required, used) =   150.000   161.974 Ry

* Maximum dynamic memory allocated =     9 MB

stepf: Fermi-Dirac step function

siesta: Program's energy decomposition (eV):
siesta: Ebs     =       -81.539423
siesta: Eions   =       380.802124
siesta: Ena     =       117.077053
siesta: Ekin    =        75.592990
siesta: Enl     =        35.345184
siesta: DEna    =         0.000000
siesta: DUscf   =         0.000000
siesta: DUext   =         0.000000
siesta: Exc     =       -64.178584
siesta: eta*DQ  =         0.000000
siesta: Emadel  =         0.000000
siesta: Emeta   =         0.000000
siesta: Emolmec =         0.000000
siesta: Ekinion =         0.000000
siesta: Eharris =      -215.517911
siesta: Etot    =      -216.965481
siesta: FreeEng =      -216.965481

siesta: iscf   Eharris(eV)      E_KS(eV)   FreeEng(eV)   dDmax  Ef(eV)
siesta:    1     -215.5179     -216.9655     -216.9655  1.8628 -4.7436
timer: Routine,Calls,Time,% = IterSCF        1      10.866  89.61
elaps: Routine,Calls,Wall,% = IterSCF        1       2.728  89.41
siesta:    2     -215.4512     -215.4358     -215.4358  0.0479 -4.5094
siesta:    3     -215.4489     -215.4728     -215.4728  0.0227 -4.5312
siesta:    4     -215.4480     -215.4461     -215.4461  0.0005 -4.5537
siesta:    5     -215.4480     -215.4468     -215.4468  0.0004 -4.5537
siesta:    6     -215.4480     -215.4482     -215.4482  0.0004 -4.5538
siesta:    7     -215.4480     -215.4480     -215.4480  0.0001 -4.5538
siesta:    8     -215.4480     -215.4480     -215.4480  0.0000 -4.5538

siesta: E_KS(eV) =             -215.4480

siesta: E_KS - E_eggbox =      -215.4480

siesta: Atomic forces (eV/Ang):
----------------------------------------
   Tot    0.000003    0.000001    0.000001
----------------------------------------
   Max    0.000002
   Res    0.000001    sqrt( Sum f_i^2 / 3N )
----------------------------------------
   Max    0.000002    constrained

Stress-tensor-Voigt (kbar):       -1.73       -1.73       -1.73       -0.00        0.00        0.00
(Free)E + p*V (eV/cell)     -215.4047
Target enthalpy (eV/cell)     -215.4480

* Maximum dynamic memory allocated =     9 MB

siesta: Program's energy decomposition (eV):
siesta: Ebs     =       -79.686646
siesta: Eions   =       380.802124
siesta: Ena     =       117.077053
siesta: Ekin    =        81.470652
siesta: Enl     =        28.903356
siesta: DEna    =         2.633369
siesta: DUscf   =         0.323272
siesta: DUext   =         0.000000
siesta: Exc     =       -65.053541
siesta: eta*DQ  =         0.000000
siesta: Emadel  =         0.000000
siesta: Emeta   =         0.000000
siesta: Emolmec =         0.000000
siesta: Ekinion =         0.000000
siesta: Eharris =      -215.447982
siesta: Etot    =      -215.447962
siesta: FreeEng =      -215.447964

siesta: Final energy (eV):
siesta:  Band Struct. =     -79.686646
siesta:       Kinetic =      81.470652
siesta:       Hartree =      14.615402
siesta:    Ext. field =       0.000000
siesta:   Exch.-corr. =     -65.053541
siesta:  Ion-electron =    -105.564496
siesta:       Ion-ion =    -140.915979
siesta:       Ekinion =       0.000000
siesta:         Total =    -215.447962

siesta: Stress tensor (static) (eV/Ang**3):
siesta:    -0.001080   -0.000000    0.000000
siesta:    -0.000000   -0.001080    0.000000
siesta:     0.000000    0.000000   -0.001080

siesta: Cell volume =         40.025752 Ang**3

siesta: Pressure (static):
siesta:                Solid            Molecule  Units
siesta:           0.00001176          0.00001176  Ry/Bohr**3
siesta:           0.00108022          0.00108021  eV/Ang**3
siesta:           1.73071822          1.73070142  kBar
(Free)E+ p_basis*V_orbitals  =        -213.898637
(Free)Eharris+ p_basis*V_orbitals  =        -213.898638

Optical: Performing optical calculation: 

Optical: Polarization type       = polarized   
Optical: Minimum of energy range =   0.0000 Ry 
Optical: Maximum of energy range =   1.4700 Ry 
Optical: Gaussian broadening     =   0.0147 Ry 
Optical: Scissor operator        =   0.0000 Ry 
Optical: Number of bands         =       26
Optical: Number of electrons     =        8
Optical: BZ mesh dimensions      =   20  20  20

Optical: electric field direction
Optical:      1.00000     0.00000     0.00000

Optical: Checking f-sum rule  0.882197
Optical: For insulators and closed shell systems
Optical: this number should be close to 1 if an enough
Optical: number of unoccupied bands have been included

* Maximum dynamic memory allocated : Node    0 =    10 MB
* Maximum dynamic memory allocated : Node    1 =    11 MB
* Maximum dynamic memory allocated : Node    2 =    10 MB
* Maximum dynamic memory allocated : Node    3 =    10 MB

* Maximum memory occured during MATEL                         

timer: CPU execution times:
timer:  Routine       Calls   Time/call    Tot.time        %
timer:  siesta            1     127.161     127.161   100.00
timer:  Setup             1       0.683       0.683     0.54
timer:  bands             1       0.002       0.002     0.00
timer:  writewave         1       0.000       0.000     0.00
timer:  KSV_init          1       0.002       0.002     0.00
timer:  IterMD            1      35.706      35.706    28.08
timer:  hsparse           1       0.019       0.019     0.01
timer:  overlap           1       0.384       0.384     0.30
timer:  IterSCF           8       3.468      27.745    21.82
timer:  kinefsm           2       0.187       0.374     0.29
timer:  nlefsm            2       5.229      10.458     8.22
timer:  DHSCF             9       1.206      10.855     8.54
timer:  DHSCF1            1       0.180       0.180     0.14
timer:  DHSCF2            1       1.451       1.451     1.14
timer:  REORD            56       0.000       0.004     0.00
timer:  POISON           10       0.003       0.032     0.03
timer:  DHSCF3            9       0.871       7.839     6.16
timer:  rhoofd            9       0.422       3.798     2.99
timer:  cellXC            9       0.004       0.036     0.03
timer:  vmat              9       0.404       3.635     2.86
timer:  MolMec            2       0.000       0.000     0.00
timer:  diagon            8       1.346      10.770     8.47
timer:  c-eigval        504       0.009       4.634     3.64
timer:  c-buildHS       504       0.002       1.024     0.81
timer:  cdiag          5008       0.009      45.790    36.01
timer:  cdiag1         5008       0.000       1.743     1.37
timer:  cdiag2         5008       0.001       3.305     2.60
timer:  cdiag3         5008       0.005      26.975    21.21
timer:  cdiag4         5008       0.000       1.342     1.06
timer:  c-eigvec        504       0.010       4.938     3.88
timer:  c-buildD        504       0.002       1.159     0.91
timer:  DHSCF4            1       1.382       1.382     1.09
timer:  dfscf             1       1.310       1.310     1.03
timer:  overfsm           1       0.026       0.026     0.02
timer:  optical           1      90.735      90.735    71.35
timer:  phirphiopt        1      24.335      24.335    19.14
timer:  transrate      4000       0.004      14.987    11.79
  

elaps: ELAPSED times:
elaps:  Routine       Calls   Time/call    Tot.time        %
elaps:  siesta            1      31.919      31.919   100.00
elaps:  Setup             1       0.177       0.177     0.55
elaps:  bands             1       0.000       0.000     0.00
elaps:  writewave         1       0.001       0.001     0.00
elaps:  KSV_init          1       0.000       0.000     0.00
elaps:  IterMD            1       9.042       9.042    28.33
elaps:  hsparse           1       0.005       0.005     0.02
elaps:  overlap           1       0.067       0.067     0.21
elaps:  IterSCF           8       0.881       7.051    22.09
elaps:  kinefsm           2       0.031       0.062     0.19
elaps:  nlefsm            2       1.287       2.574     8.06
elaps:  DHSCF             9       0.310       2.790     8.74
elaps:  DHSCF1            1       0.045       0.045     0.14
elaps:  DHSCF2            1       0.362       0.362     1.13
elaps:  REORD            56       0.000       0.000     0.00
elaps:  POISON           10       0.001       0.010     0.03
elaps:  DHSCF3            9       0.218       1.958     6.13
elaps:  rhoofd            9       0.103       0.924     2.89
elaps:  cellXC            9       0.001       0.012     0.04
elaps:  vmat              9       0.101       0.908     2.84
elaps:  MolMec            2       0.000       0.000     0.00
elaps:  diagon            8       0.337       2.697     8.45
elaps:  c-eigval        504       0.002       1.158     3.63
elaps:  c-buildHS       504       0.000       0.245     0.77
elaps:  cdiag          5008       0.002       9.231    28.92
elaps:  cdiag1         5008       0.000       0.440     1.38
elaps:  cdiag2         5008       0.000       0.664     2.08
elaps:  cdiag3         5008       0.001       7.171    22.47
elaps:  cdiag4         5008       0.000       0.282     0.88
elaps:  c-eigvec        504       0.002       1.250     3.92
elaps:  c-buildD        504       0.001       0.269     0.84
elaps:  DHSCF4            1       0.423       0.423     1.33
elaps:  dfscf             1       0.405       0.405     1.27
elaps:  overfsm           1       0.004       0.004     0.01
elaps:  optical           1      22.678      22.678    71.05
elaps:  phirphiopt        1       6.048       6.048    18.95
elaps:  transrate      4000       0.001       3.737    11.71
  
>> End of run:  24-MAR-2013  18:45:19
