Siesta Version  : v4.1-b4-351
Architecture    : x86_64-linux-n-62-26-19
Compiler version: GNU Fortran (GCC) 9.3.0
Compiler flags  : mpifort -m64 -fPIC -O3 -march=native -ftree-vectorize -fexpensive-optimizatioons -funroll-loops -fprefetch-loop-arrays -fno-second-underscore  -flto
PP flags        : -I/dtu/sw/dcc/SL73/2020-aug/generic/build-tools/1.0/include -I/dtu/sw/dcc/SL773/2020-aug/generic/gcc/9.3.0/include -I/dtu/sw/dcc/SL73/2020-aug/generic/gcc/9.3.0/include -I/dtu/sw/dcc/SL73/2020-aug/XeonE5-2660v3/gnu/9.3.0/zlib/1.2.11/include -I/dtu/sw/dcc/SL73/2020-aug/generic/numactl/2.0.12/include -I/dtu/sw/dcc/SL73/2020-aug/XeonE5-2660v3/gnu/9.3.0/libxml2/2.9.10/include -I/dtu/sw/dcc/SL73/2020-aug/XeonE5-2660v3/gnu/9.3.0/hwloc/2.2.0/include -I/dtu/sw/dcc/SL73/2020-aug/XeonE5-2660v3/gnu/9.3.0/knem/1.1.4/include -I/dtu/sw/dcc/SL73/2020-aug/XeonE5-2660v3/gnu/9.3.0/ucx/1.8.1/include -I/dtu/sw/dcc/SL73/2020-aug/XeonE5-2660v3/gnu/9.3.0/openmpi/4.0.4/include -I/dtu/sw/dcc/SL73/2020-aug/XeonE5-2660v3/gnu/9.3.0/szip/2.1.1/include -I/dtu/sw/dcc/SL73/2020-aug/XeonE5-2660v3/gnu/9.3.0/hdf5/1.12.0/include -I/dtu/sw/dcc/SL73/2020-aug/XeonE5-2660v3/gnu/9.3.0/pnetcdf/1.12.1/include -I/dtu/sw/dcc/SL73/2020-aug/generic/gen-zlib/1.2.11/include -I/dtu/sw/dcc/SL73/2020-aug/generic/openssl/1.1.1/include -I/dtu/sw/dcc/SL73/2020-aug/generic/libssh2/1.8.2/include -I/dtu/sw/dcc/SL73/2020-aug/generic/curl/7.65.1/include -I/dtu/sw/dcc/SL73/2020-aug/XeonE5-2660v3/gnu/9.3.0/netcdf/4.7.4/include -I/dtu/sw/dcc/SL73/2020-aug/XeonE5-2660v3/gnu/9.3.0/flook/0.8.1/include -I/dtu/sw/dcc/SL73/2020-aug/XeonE5-2660v3/gnu/9.3.0/fftw/3.3.8/include -I/dtu/sw/dcc/SL73/2020-aug/XeonE5-2660v3/gnu/9.3.0/parmetis/4.0.3/include -I/dtu/sw/dcc/SL73/2020-aug/XeonE5-2660v3/gnu/9.3.0/scalapack/2.1.0/include -I/dtu/sw/dcc/SL73/2020-aug/XeonE5-2660v3/gnu/9.3.0/lapack/3.9.0/include -I/dtu/sw/dcc/SL73/2020-aug/XeonE5-2660v3/gnu/9.3.0/blis/0.7.0/include -I/dtu/sw/dcc/SL73/2020-aug/XeonE5-2660v3/gnu/9.3.0/scotch/6.0.9/include -I/dtu/sw/dcc/SL73/2020-aug/XeonE5-2660v3/gnu/9.3.0/mumps/5.3.3/include -I/dtu/sw/dcc/SL73/2020-aug/XeonE5-2660v3/gnu/9.3.0/elpa/2020.05.001/include -DSIESTA__ELPA -DMPI -DFC_HAVE_FLUSH -DFC_HAVE_ABORT -DCDF -DCDF4 -DSIESTA__FLOOK  -DNCDF -DNCDF_4 -DNCDF_PARALLEL -DTS_NOCHECKS -DSIESTA__METIS -DSIESTA__MUMPS -DSIESTA__MRRR -I/dtu/sw/dcc/SL73/2020-aug/XeonE5-2660v3/gnu/9.3.0/elpa/2020.05.001/include/elpa
Libraries       : libncdf.a libfdict.a -lnetcdff -lnetcdf -lpnetcdf -lhdf5_hl -lhdf5 -lz  -lzmuumps -lmumps_common -lesmumps -lscotch -lscotcherr -lpord -lparmetis -lmetis -lelpa -lscalapack -llapack -lblis  -L/dtu/sw/dcc/SL73/2020-aug/XeonE5-2660v3/gnu/9.3.0/flook/0.8.1/lib -Wl,-rpath=/dtu/sw/dcc/SL73/2020-aug/XeonE5-2660v3/gnu/9.3.0/flook/0.8.1/lib -lflookall -ldl  -flto -fuse-linker-plugin  -lmetis
PARALLEL version
NetCDF support
NetCDF-4 support
NetCDF-4 MPI-IO support
METIS ordering support
Lua support

* Running on 8 nodes in parallel
>> Start of run:  22-JAN-2021  23:23:21

                           ***********************       
                           *  WELCOME TO SIESTA  *       
                           ***********************       

reinit: Reading from ../si111-spinpol.fdf

reinit: -----------------------------------------------------------------------
reinit: System Name: si2x1.gga.vpsgga.sp.9l.sym.af-f
reinit: -----------------------------------------------------------------------
reinit: System Label: si111-spinpol
reinit: -----------------------------------------------------------------------

initatom: Reading input for the pseudopotentials and atomic orbitals ----------
Species number:   1 Atomic number:   14 Label: Si
Species number:   2 Atomic number:    1 Label: H

Ground state valence configuration:   3s02  3p02
Reading pseudopotential information in formatted form from Si.psf

Valence configuration for pseudopotential generation:
3s( 2.00) rc: 1.89
3p( 2.00) rc: 1.89
3d( 0.00) rc: 1.89
4f( 0.00) rc: 1.89
Ground state valence configuration:   1s01
Reading pseudopotential information in formatted form from H.psf

Valence configuration for pseudopotential generation:
1s( 1.00) rc: 1.25
2p( 0.00) rc: 1.25
3d( 0.00) rc: 1.25
4f( 0.00) rc: 1.25
For Si, standard SIESTA heuristics set lmxkb to 3
 (one more than the basis l, including polarization orbitals).
Use PS.lmax or PS.KBprojectors blocks to override.
For H, standard SIESTA heuristics set lmxkb to 1
 (one more than the basis l, including polarization orbitals).
Use PS.lmax or PS.KBprojectors blocks to override.

<basis_specs>
===============================================================================
Si                   Z=  14    Mass=  28.090        Charge= 0.17977+309
Lmxo=1 Lmxkb= 3    BasisType=split      Semic=F
L=0  Nsemic=0  Cnfigmx=3
          i=1  nzeta=1  polorb=0  (3s)
            splnorm:   0.20000    
               vcte:    0.0000    
               rinn:    0.0000    
               qcoe:    0.0000    
               qyuk:    0.0000    
               qwid:   0.10000E-01
                rcs:    0.0000    
            lambdas:    1.0000    
L=1  Nsemic=0  Cnfigmx=3
          i=1  nzeta=1  polorb=1  (3p)
            splnorm:   0.20000    
               vcte:    0.0000    
               rinn:    0.0000    
               qcoe:    0.0000    
               qyuk:    0.0000    
               qwid:   0.10000E-01
                rcs:    0.0000    
            lambdas:    1.0000    
-------------------------------------------------------------------------------
L=0  Nkbl=1  erefs: 0.17977+309
L=1  Nkbl=1  erefs: 0.17977+309
L=2  Nkbl=1  erefs: 0.17977+309
L=3  Nkbl=1  erefs: 0.17977+309
===============================================================================
</basis_specs>

atom: Called for Si                    (Z =  14)

read_vps: Pseudopotential generation method:
read_vps: ATM3      Troullier-Martins                       
Valence charge for ps generation:    4.00000

xc_check: Exchange-correlation functional:
xc_check: GGA Perdew, Burke & Ernzerhof 1996
xc_check: WARNING: Pseudopotential generated with LDA CA functional
V l=0 = -2*Zval/r beyond r=  2.5494
V l=1 = -2*Zval/r beyond r=  2.5494
V l=2 = -2*Zval/r beyond r=  2.5494
V l=3 = -2*Zval/r beyond r=  2.5494
All V_l potentials equal beyond r=  1.8652
This should be close to max(r_c) in ps generation
All pots = -2*Zval/r beyond r=  2.5494
Using large-core scheme for Vlocal

atom: Estimated core radius    2.54944

atom: Including non-local core corrections could be a good idea
atom: Maximum radius for 4*pi*r*r*local-pseudopot. charge    2.85303
atom: Maximum radius for r*vlocal+2*Zval:    2.58151
GHOST: No ghost state for L =  0
GHOST: No ghost state for L =  1
GHOST: No ghost state for L =  2
GHOST: No ghost state for L =  3

KBgen: Kleinman-Bylander projectors: 
   l= 0   rc=  1.936440   el= -0.807387   Ekb=  4.637207   kbcos=  0.300267
   l= 1   rc=  1.936440   el= -0.312019   Ekb=  1.490013   kbcos=  0.306600
   l= 2   rc=  1.936440   el=  0.001958   Ekb= -2.804484   kbcos= -0.055139
   l= 3   rc=  1.936440   el=  0.003046   Ekb= -0.959220   kbcos= -0.005470

KBgen: Total number of  Kleinman-Bylander projectors:   16
atom: -------------------------------------------------------------------------

atom: SANKEY-TYPE ORBITALS:

SPLIT: Orbitals with angular momentum L= 0

SPLIT: Basis orbitals for state 3s

SPLIT: PAO cut-off radius determined from an
SPLIT: energy shift=  0.014700 Ry

   izeta = 1
                 lambda =    1.000000
                     rc =    5.134119
                 energy =   -0.792934
                kinetic =    0.571129
    potential(screened) =   -1.364064
       potential(ionic) =   -3.825498

SPLIT: Orbitals with angular momentum L= 1

SPLIT: Basis orbitals for state 3p

SPLIT: PAO cut-off radius determined from an
SPLIT: energy shift=  0.014700 Ry

   izeta = 1
                 lambda =    1.000000
                     rc =    6.429618
                 energy =   -0.297843
                kinetic =    0.882865
    potential(screened) =   -1.180708
       potential(ionic) =   -3.438180

POLgen: Perturbative polarization orbital with L=  2

POLgen: Polarization orbital for state 3p

   izeta = 1
                     rc =    6.429618
                 energy =    0.426445
                kinetic =    1.294945
    potential(screened) =   -0.868499
       potential(ionic) =   -2.933234
atom: Total number of Sankey-type orbitals:  9

atm_pop: Valence configuration (for local Pseudopot. screening):
 3s( 2.00)                                                            
 3p( 2.00)                                                            
Vna: chval, zval:    4.00000   4.00000

Vna:  Cut-off radius for the neutral-atom potential:   6.429618

atom: _________________________________________________________________________

<basis_specs>
===============================================================================
H                    Z=   1    Mass=  1.0100        Charge= 0.17977+309
Lmxo=0 Lmxkb= 1    BasisType=split      Semic=F
L=0  Nsemic=0  Cnfigmx=1
          i=1  nzeta=1  polorb=0  (1s)
            splnorm:   0.20000    
               vcte:    0.0000    
               rinn:    0.0000    
               qcoe:    0.0000    
               qyuk:    0.0000    
               qwid:   0.10000E-01
                rcs:    0.0000    
            lambdas:   0.75000    
-------------------------------------------------------------------------------
L=0  Nkbl=1  erefs: 0.17977+309
L=1  Nkbl=1  erefs: 0.17977+309
===============================================================================
</basis_specs>

atom: Called for H                     (Z =   1)

read_vps: Pseudopotential generation method:
read_vps: ATM3      Troullier-Martins                       
Valence charge for ps generation:    1.00000

xc_check: Exchange-correlation functional:
xc_check: GGA Perdew, Burke & Ernzerhof 1996
xc_check: WARNING: Pseudopotential generated with LDA CA functional
V l=0 = -2*Zval/r beyond r=  1.2343
V l=1 = -2*Zval/r beyond r=  1.2189
All V_l potentials equal beyond r=  1.2343
This should be close to max(r_c) in ps generation
All pots = -2*Zval/r beyond r=  1.2343

VLOCAL1: 99.0% of the norm of Vloc inside     28.493 Ry
VLOCAL1: 99.9% of the norm of Vloc inside     64.935 Ry
atom: Maximum radius for 4*pi*r*r*local-pseudopot. charge    1.45251
atom: Maximum radius for r*vlocal+2*Zval:    1.21892
GHOST: No ghost state for L =  0
GHOST: No ghost state for L =  1

KBgen: Kleinman-Bylander projectors: 
   l= 0   rc=  1.364359   el= -0.488086   Ekb= -2.002077   kbcos= -0.347561
   l= 1   rc=  1.434438   el=  0.001075   Ekb= -0.501617   kbcos= -0.021754

KBgen: Total number of  Kleinman-Bylander projectors:    4
atom: -------------------------------------------------------------------------

atom: SANKEY-TYPE ORBITALS:

SPLIT: Orbitals with angular momentum L= 0

SPLIT: Basis orbitals for state 1s

SPLIT: PAO cut-off radius determined from an
SPLIT: energy shift=  0.014700 Ry

   izeta = 1
                 lambda =    0.750000
                     rc =    4.888755
                 energy =   -0.372406
                kinetic =    1.579954
    potential(screened) =   -1.952359
       potential(ionic) =   -2.481447
atom: Total number of Sankey-type orbitals:  1

atm_pop: Valence configuration (for local Pseudopot. screening):
 1s( 1.00)                                                            
Vna: chval, zval:    1.00000   1.00000

Vna:  Cut-off radius for the neutral-atom potential:   4.889026

atom: _________________________________________________________________________

prinput: Basis input ----------------------------------------------------------

PAO.BasisType split     

%block ChemicalSpeciesLabel
    1   14 Si                      # Species index, atomic number, species label
    2    1 H                       # Species index, atomic number, species label
%endblock ChemicalSpeciesLabel

%block PAO.Basis                 # Define Basis set
Si                    2                    # Species label, number of l-shells
 n=3   0   1                         # n, l, Nzeta 
   5.134   
   1.000   
 n=3   1   1 P   1                   # n, l, Nzeta, Polarization, NzetaPol
   6.430   
   1.000   
H                     1                    # Species label, number of l-shells
 n=1   0   1                         # n, l, Nzeta 
   4.889   
   0.750   
%endblock PAO.Basis

prinput: ----------------------------------------------------------------------

Dumping basis to NetCDF file Si.ion.nc
Dumping basis to NetCDF file H.ion.nc
coor:   Atomic-coordinates input format  =     Cartesian coordinates
coor:                                          (in units of alat)

siesta: Atomic coordinates (Bohr) and species
siesta:      0.00000   1.47935   0.60249  1        1
siesta:      0.00004   5.85660   0.60249  1        2
siesta:      3.66797   0.15738   2.66028  1        3
siesta:      3.66795   7.17861   2.66033  1        4
siesta:      3.66796   3.66797   5.49980  1        5
siesta:      3.66812  11.00392   5.02460  1        6
siesta:      0.00006   3.66799   8.03258  1        7
siesta:     -0.00002  11.00384   7.68521  1        8
siesta:      0.00032  -0.08478  10.44821  1        9
siesta:      0.00039   7.42087  10.44837  1       10
siesta:      3.66819  -0.06850  13.02976  1       11
siesta:      3.66808   7.40442  13.02951  1       12
siesta:      3.66800   3.66797  15.55476  1       13
siesta:      3.66882  11.00411  15.67418  1       14
siesta:      0.00000   3.66797  18.17376  1       15
siesta:      0.00050  11.00395  18.23786  1       16
siesta:      0.00000   0.00000  20.74900  1       17
siesta:      0.00000   7.33595  20.74900  1       18
siesta:     -2.14797   0.00000  22.53824  2       19
siesta:      2.14797   0.00000  22.53824  2       20
siesta:     -2.14797   7.33595  22.53824  2       21
siesta:      2.14797   7.33595  22.53824  2       22

siesta: System type = slab      

initatomlists: Number of atoms, orbitals, and projectors:     22   166   304

coxmol: Writing XMOL coordinates into file si111-spinpol.xyz                                                   

siesta: ******************** Simulation parameters ****************************
siesta:
siesta: The following are some of the parameters of the simulation.
siesta: A complete list of the parameters used, including default values,
siesta: can be found in file out.fdf
siesta:
redata: Spin configuration                          = collinear
redata: Number of spin components                   = 2
redata: Time-Reversal Symmetry                      = T
redata: Spin spiral                                 = F
redata: Long output                                 =   F
redata: Number of Atomic Species                    =        2
redata: Charge density info will appear in .RHO file
redata: Write Mulliken Pop.                         = Atomic and Orbital charges
redata: Matel table size (NRTAB)                    =     1024
redata: Mesh Cutoff                                 =   100.0000 Ry
redata: Net charge of the system                    =     0.0000 |e|
redata: Min. number of SCF Iter                     =        0
redata: Max. number of SCF Iter                     =     1000
redata: SCF convergence failure will abort job
redata: SCF mix quantity                            = Hamiltonian
redata: Mix DM or H after convergence               =   F
redata: Recompute H after scf cycle                 =   F
redata: Mix DM in first SCF step                    =   T
redata: Write Pulay info on disk                    =   F
redata: New DM Occupancy tolerance                  = 0.000000000001
redata: No kicks to SCF
redata: DM Mixing Weight for Kicks                  =     0.5000
redata: Require Harris convergence for SCF          =   F
redata: Harris energy tolerance for SCF             =     0.000100 eV
redata: Require DM convergence for SCF              =   T
redata: DM tolerance for SCF                        =     0.000100
redata: Require EDM convergence for SCF             =   F
redata: EDM tolerance for SCF                       =     0.001000 eV
redata: Require H convergence for SCF               =   T
redata: Hamiltonian tolerance for SCF               =     0.001000 eV
redata: Require (free) Energy convergence for SCF   =   F
redata: (free) Energy tolerance for SCF             =     0.000100 eV
redata: Antiferro initial spin density              =   F
redata: Using Saved Data (generic)                  =   F
redata: Use continuation files for DM               =   F
redata: Neglect nonoverlap interactions             =   F
redata: Method of Calculation                       = Diagonalization
redata: Electronic Temperature                      =    58.0222 K
redata: Fix the spin of the system                  =   F
redata: Dynamics option                             = Single-point calculation
mix.SCF: Pulay mixing                            = Pulay
mix.SCF:    Variant                              = stable
mix.SCF:    History steps                        = 3
mix.SCF:    Linear mixing weight                 =     0.100000
mix.SCF:    Mixing weight                        =     0.100000
mix.SCF:    SVD condition                        = 0.1000E-07
mix.SCF: Spin-component mixing                   all
redata: Save all siesta data in one NC              =   F
redata: ***********************************************************************

%block SCF.Mixers
  Pulay
%endblock SCF.Mixers

%block SCF.Mixer.Pulay
  # Mixing method
  method pulay
  variant stable

  # Mixing options
  weight 0.1000
  weight.linear 0.1000
  history 3
%endblock SCF.Mixer.Pulay

DM_history_depth set to one: no extrapolation allowed by default for geometry relaxation
Size of DM history Fstack: 1
Total number of electrons:    76.000000
Total ionic charge:    76.000000

* ProcessorY, Blocksize:    2  21


* Orbital distribution balance (max,min):    21    19

 Kpoints in:            6 . Kpoints trimmed:            5

siesta: k-grid: Number of k-points =     5
siesta: k-grid: Cutoff (effective) =     5.823 Ang
siesta: k-grid: Supercell and displacements
siesta: k-grid:    3   0   0      0.000
siesta: k-grid:    0   3   0      0.000
siesta: k-grid:    0   0   1      0.000

diag: Algorithm                                     = D&C
diag: Parallel over k                               =   F
diag: Use parallel 2D distribution                  =   T
diag: Parallel block-size                           = 21
diag: Parallel distribution                         =     2 x     4
diag: Used triangular part                          = Lower
diag: Absolute tolerance                            =  0.100E-15
diag: Orthogonalization factor                      =  0.100E-05
diag: Memory factor                                 =  1.0000

superc: Internal auxiliary supercell:     5 x     3 x     1  =      15
superc: Number of atoms, orbitals, and projectors:    330   2490   4560

siesta: Constraints using custom constr routine
siesta: Constraint (6): pos
  [ 17 -- 22 ]


ts: **************************************************************
ts: Save H and S matrices                           =    F
ts: Save DM and EDM matrices                        =    F
ts: Only save the overlap matrix S                  =    F
ts: **************************************************************

************************ Begin: TS CHECKS AND WARNINGS ************************
************************ End: TS CHECKS AND WARNINGS **************************


                     ====================================
                        Single-point calculation
                     ====================================

outcoor: Atomic coordinates (scaled):                       
    0.00000041    0.20165728    0.08212876   1       1  Si
    0.00000557    0.79834210    0.08212876   1       2  Si
    0.49999992    0.02145368    0.36263553   1       3  Si
    0.49999722    0.97855287    0.36264235   1       4  Si
    0.49999851    0.49999916    0.74970455   1       5  Si
    0.50001930    1.49999916    0.68492868   1       6  Si
    0.00000849    0.50000179    1.09496075   1       7  Si
   -0.00000336    1.49998803    1.04760947   1       8  Si
    0.00004366   -0.01155657    1.42424719   1       9  Si
    0.00005371    1.01157604    1.42426949   1      10  Si
    0.50002980   -0.00933792    1.77615172   1      11  Si
    0.50001391    1.00933408    1.77611812   1      12  Si
    0.50000291    0.49999931    2.12034679   1      13  Si
    0.50011505    1.50002573    2.13662611   1      14  Si
    0.00000006    0.49999949    2.47735636   1      15  Si
    0.00006776    1.50000282    2.48609396   1      16  Si
    0.00000000    0.00000000    2.82840000   1      17  Si
    0.00000000    1.00000000    2.82840000   1      18  Si
   -0.29280000    0.00000000    3.07230000   2      19  H
    0.29280000    0.00000000    3.07230000   2      20  H
   -0.29280000    1.00000000    3.07230000   2      21  H
    0.29280000    1.00000000    3.07230000   2      22  H

superc: Internal auxiliary supercell:     5 x     3 x     1  =      15
superc: Number of atoms, orbitals, and projectors:    330   2490   4560

outcell: Unit cell vectors (Ang):
        3.882016    0.000000    0.000000
        0.000000    7.764032    0.000000
        0.000000    0.000000   36.879152

outcell: Cell vector modules (Ang)   :    3.882016    7.764032   36.879152
outcell: Cell angles (23,13,12) (deg):     90.0000     90.0000     90.0000
outcell: Cell volume (Ang**3)        :   1111.5412
<dSpData1D:S at geom step 0
  <sparsity:sparsity for geom step 0
    nrows_g=166 nrows=21 sparsity=.3556 nnzs=9798, refcount: 7>
  <dData1D:(new from dSpData1D) n=9798, refcount: 1>
refcount: 1>
new_DM -- step:     1
Initializing Density Matrix...
DM filled with atomic data (user-defined):
<dSpData2D:DM initialized from atoms
  <sparsity:sparsity for geom step 0
    nrows_g=166 nrows=21 sparsity=.3556 nnzs=9798, refcount: 8>
  <dData2D:DM n=9798 m=2, refcount: 1>
refcount: 1>
     spin moment: S , {S} =    0.00000       0.0       0.0   0.00000
No. of atoms with KB's overlaping orbs in proc 0. Max # of overlaps:      22     157
New grid distribution:   1
           1       1:   12    1:   12    1:   30
           2       1:   12    1:   12   31:   60
           3       1:   12    1:   12   61:   90
           4       1:   12    1:   12   91:  120
           5       1:   12   13:   24    1:   30
           6       1:   12   13:   24   31:   60
           7       1:   12   13:   24   61:   90
           8       1:   12   13:   24   91:  120

InitMesh: MESH =    24 x    48 x   240 =      276480
InitMesh: (bp) =    12 x    24 x   120 =       34560
InitMesh: Mesh cutoff (required, used) =   100.000   105.635 Ry
ExtMesh (bp) on 0 =    56 x    56 x    78 =      244608
New grid distribution:   2
           1       1:   12    1:   24   15:   19
           2       1:   12    1:   24   29:   33
           3       1:   12    1:   24   34:  120
           4       1:   12    1:   24    7:   10
           5       1:   12    1:   24    1:    6
           6       1:   12    1:   24   20:   24
           7       1:   12    1:   24   25:   28
           8       1:   12    1:   24   11:   14
New grid distribution:   3
           1       1:   12    1:   24    8:   14
           2       1:   12    1:   24   29:   35
           3       1:   12    1:   24   43:  113
           4       1:   12    1:   24   22:   28
           5       1:   12    1:   24    1:    7
           6       1:   12    1:   24   36:   42
           7       1:   12    1:   24   15:   21
           8       1:   12    1:   24  114:  120
Setting up quadratic distribution...
ExtMesh (bp) on 0 =    56 x    68 x    53 =      201824
PhiOnMesh: Number of (b)points on node 0 =                 1440
PhiOnMesh: nlist on node 0 =               108770

stepf: Fermi-Dirac step function

siesta: Program's energy decomposition (eV):
siesta: Ebs     =      -681.623945
siesta: Eions   =      3506.048399
siesta: Ena     =      1055.453202
siesta: Ekin    =       760.817271
siesta: Enl     =       240.772848
siesta: Eso     =         0.000000
siesta: Edftu   =         0.000000
siesta: DEna    =        65.800638
siesta: DUscf   =         3.504307
siesta: DUext   =         0.000000
siesta: Exc     =      -613.005536
siesta: eta*DQ  =         0.000000
siesta: Emadel  =         0.000000
siesta: Emeta   =         0.000000
siesta: Emolmec =         0.000000
siesta: Ekinion =         0.000000
siesta: Eharris =     -2004.233972
siesta: Etot    =     -1992.705670
siesta: FreeEng =     -1992.705670

        iscf     Eharris(eV)        E_KS(eV)     FreeEng(eV)     dDmax    Ef(eV) dHmax(eV)
   scf:    1    -2004.233972    -1992.705670    -1992.705670  0.572776 -4.149326  1.592516
     spin moment: S , {S} =   -0.00000       0.0       0.0  -0.00000
timer: Routine,Calls,Time,% = IterSCF        1       0.877  42.52
   scf:    2    -1993.105514    -1992.935580    -1992.935580  0.008818 -4.102965  0.716913
     spin moment: S , {S} =   -0.00000       0.0       0.0  -0.00000
   scf:    3    -1993.101161    -1993.025166    -1993.025166  0.005412 -4.104289  0.551645
     spin moment: S , {S} =   -0.00000       0.0       0.0  -0.00000
   scf:    4    -1993.145415    -1993.091348    -1993.091348  0.008187 -4.138992  0.495703
     spin moment: S , {S} =   -0.00000       0.0       0.0  -0.00000
   scf:    5    -1993.157049    -1993.124610    -1993.124610  0.009298 -4.194834  0.401266
     spin moment: S , {S} =   -0.00000       0.0       0.0  -0.00000
   scf:    6    -1993.191906    -1993.157724    -1993.157724  0.017725 -4.304358  0.175563
     spin moment: S , {S} =   -0.00000       0.0       0.0  -0.00000
   scf:    7    -1993.170756    -1993.163951    -1993.163951  0.008374 -4.352789  0.068587
     spin moment: S , {S} =   -0.00000       0.0       0.0  -0.00000
   scf:    8    -1993.166658    -1993.165397    -1993.165397  0.001176 -4.350084  0.047833
     spin moment: S , {S} =   -0.00000       0.0       0.0  -0.00000
   scf:    9    -1993.166531    -1993.165992    -1993.165992  0.000745 -4.345022  0.043342
     spin moment: S , {S} =   -0.00000       0.0       0.0  -0.00000
   scf:   10    -1993.166950    -1993.166479    -1993.166479  0.000967 -4.341136  0.043209
     spin moment: S , {S} =   -0.00000       0.0       0.0  -0.00000
   scf:   11    -1993.167237    -1993.166854    -1993.166854  0.000913 -4.340154  0.041211
     spin moment: S , {S} =   -0.00000       0.0       0.0  -0.00000
   scf:   12    -1993.168343    -1993.167569    -1993.167569  0.002179 -4.341200  0.030184
     spin moment: S , {S} =   -0.00000       0.0       0.0  -0.00000
   scf:   13    -1993.168586    -1993.168044    -1993.168044  0.002335 -4.343210  0.015314
     spin moment: S , {S} =   -0.00000       0.0       0.0  -0.00000
   scf:   14    -1993.168295    -1993.168164    -1993.168164  0.001021 -4.344130  0.009911
     spin moment: S , {S} =   -0.00000       0.0       0.0  -0.00000
   scf:   15    -1993.168222    -1993.168193    -1993.168193  0.000341 -4.344056  0.009394
     spin moment: S , {S} =   -0.00000       0.0       0.0  -0.00000
   scf:   16    -1993.168223    -1993.168208    -1993.168208  0.000265 -4.343435  0.008798
     spin moment: S , {S} =   -0.00000       0.0       0.0  -0.00000
   scf:   17    -1993.168231    -1993.168220    -1993.168220  0.000208 -4.342925  0.008164
     spin moment: S , {S} =   -0.00000       0.0       0.0  -0.00000
   scf:   18    -1993.168266    -1993.168242    -1993.168242  0.000399 -4.342263  0.007601
     spin moment: S , {S} =   -0.00000       0.0       0.0  -0.00000
   scf:   19    -1993.168287    -1993.168264    -1993.168264  0.000385 -4.342066  0.006391
     spin moment: S , {S} =   -0.00000       0.0       0.0  -0.00000
   scf:   20    -1993.168312    -1993.168287    -1993.168287  0.000509 -4.342174  0.004726
     spin moment: S , {S} =   -0.00000       0.0       0.0  -0.00000
   scf:   21    -1993.168315    -1993.168300    -1993.168300  0.000419 -4.342494  0.003442
     spin moment: S , {S} =   -0.00000       0.0       0.0  -0.00000
   scf:   22    -1993.168310    -1993.168305    -1993.168305  0.000209 -4.342627  0.002885
     spin moment: S , {S} =   -0.00000       0.0       0.0  -0.00000
   scf:   23    -1993.168309    -1993.168307    -1993.168307  0.000111 -4.342585  0.002669
     spin moment: S , {S} =   -0.00000       0.0       0.0  -0.00000
   scf:   24    -1993.168309    -1993.168308    -1993.168308  0.000058 -4.342472  0.002588
     spin moment: S , {S} =   -0.00000       0.0       0.0  -0.00000
   scf:   25    -1993.168311    -1993.168310    -1993.168310  0.000106 -4.342221  0.002473
     spin moment: S , {S} =   -0.00000       0.0       0.0  -0.00000
   scf:   26    -1993.168312    -1993.168311    -1993.168311  0.000071 -4.342144  0.002381
     spin moment: S , {S} =   -0.00000       0.0       0.0  -0.00000
   scf:   27    -1993.168314    -1993.168312    -1993.168312  0.000111 -4.342170  0.002164
     spin moment: S , {S} =   -0.00000       0.0       0.0  -0.00000
   scf:   28    -1993.168316    -1993.168314    -1993.168314  0.000131 -4.342259  0.001815
     spin moment: S , {S} =   -0.00000       0.0       0.0  -0.00000
   scf:   29    -1993.168317    -1993.168315    -1993.168315  0.000129 -4.342329  0.001422
     spin moment: S , {S} =   -0.00000       0.0       0.0  -0.00000
   scf:   30    -1993.168316    -1993.168316    -1993.168316  0.000062 -4.342324  0.001222
     spin moment: S , {S} =   -0.00000       0.0       0.0  -0.00000
   scf:   31    -1993.168316    -1993.168316    -1993.168316  0.000037 -4.342276  0.001128
     spin moment: S , {S} =   -0.00000       0.0       0.0  -0.00000
   scf:   32    -1993.168316    -1993.168316    -1993.168316  0.000028 -4.342191  0.001116
     spin moment: S , {S} =   -0.00000       0.0       0.0  -0.00000
   scf:   33    -1993.168316    -1993.168316    -1993.168316  0.000020 -4.342156  0.001118
     spin moment: S , {S} =   -0.00000       0.0       0.0  -0.00000
   scf:   34    -1993.168317    -1993.168317    -1993.168317  0.000035 -4.342160  0.001069
     spin moment: S , {S} =   -0.00000       0.0       0.0  -0.00000
   scf:   35    -1993.168317    -1993.168317    -1993.168317  0.000048 -4.342187  0.000945
     spin moment: S , {S} =   -0.00000       0.0       0.0  -0.00000

SCF Convergence by DM+H criterion
max |DM_out - DM_in|         :     0.0000478969
max |H_out - H_in|      (eV) :     0.0009454533
SCF cycle converged after 35 iterations

Using DM_out to compute the final energy and forces
No. of atoms with KB's overlaping orbs in proc 0. Max # of overlaps:      22     157

siesta: E_KS(eV) =            -1993.1683

siesta: E_KS - E_eggbox =     -1993.1683
     spin moment: S , {S} =   -0.00000       0.0       0.0  -0.00000

siesta: Atomic forces (eV/Ang):
     1    0.000049    0.231291    0.005851
     2   -0.000356   -0.231157    0.006077
     3    0.000136    0.279655    0.036503
     4    0.000590   -0.280042    0.036141
     5    0.000323    0.000072   -0.051844
     6   -0.001072    0.000144    0.118363
     7   -0.000001    0.000665   -0.105654
     8    0.001277    0.000549   -0.034460
     9   -0.003574    0.054977   -0.014816
    10   -0.004198   -0.056357   -0.016934
    11    0.001052    0.010312   -0.009760
    12    0.002351   -0.008597   -0.006652
    13   -0.000026    0.000343    0.013764
    14   -0.005166   -0.001586    0.028797
    15    0.000064    0.000078   -0.062571
    16    0.002812    0.000043   -0.100717
    17    0.000192    0.086115   -0.167877
    18    0.000239   -0.086088   -0.168035
    19   -0.211658    0.020441    0.128678
    20    0.211568    0.020674    0.128792
    21   -0.211664   -0.020402    0.128666
    22    0.211565   -0.020636    0.128789
----------------------------------------
   Tot   -0.005499    0.000494    0.021102
----------------------------------------
   Max    0.280042
   Res    0.098153    sqrt( Sum f_i^2 / 3N )
----------------------------------------
   Max    0.280042    constrained

Stress tensor Voigt[x,y,z,yz,xz,xy] (kbar):      -22.85        0.64       -0.75        0.00       -0.03        0.00
(Free)E + p*V (eV/cell)    -1987.8583
Target enthalpy (eV/cell)    -1993.1683

mulliken: Atomic and Orbital Populations:

mulliken: Spin UP 

Species: Si                  
Atom  Qatom  Qorb
               3s      3py     3pz     3px     3Pdxy   3Pdyz   3Pdz2   3Pdxz   
               3Pdx2-y2
   1  2.250   0.698   0.439   0.603   0.417   0.024   0.007   0.008   0.022
              0.032
   2  1.737   0.639   0.392   0.198   0.398   0.023   0.021   0.010   0.023
              0.032
   3  2.030   0.634   0.409   0.398   0.418   0.030   0.033   0.029   0.042
              0.037
   4  2.013   0.642   0.414   0.406   0.415   0.026   0.032   0.015   0.032
              0.032
   5  1.958   0.648   0.377   0.382   0.411   0.015   0.029   0.017   0.041
              0.038
   6  2.014   0.644   0.400   0.405   0.427   0.021   0.035   0.017   0.033
              0.034
   7  2.002   0.633   0.404   0.406   0.431   0.019   0.029   0.015   0.032
              0.033
   8  1.994   0.645   0.414   0.400   0.411   0.016   0.030   0.017   0.034
              0.027
   9  1.999   0.637   0.408   0.403   0.421   0.019   0.031   0.017   0.032
              0.030
  10  2.004   0.637   0.411   0.404   0.421   0.020   0.031   0.017   0.033
              0.030
  11  1.999   0.636   0.411   0.403   0.420   0.018   0.031   0.017   0.032
              0.031
  12  2.001   0.637   0.411   0.403   0.419   0.018   0.032   0.017   0.032
              0.031
  13  1.999   0.640   0.409   0.404   0.421   0.017   0.030   0.016   0.031
              0.031
  14  2.003   0.633   0.413   0.406   0.420   0.018   0.031   0.017   0.033
              0.031
  15  2.007   0.636   0.418   0.414   0.419   0.017   0.031   0.016   0.028
              0.029
  16  2.010   0.630   0.419   0.416   0.421   0.018   0.031   0.016   0.028
              0.030
  17  2.166   0.640   0.406   0.471   0.495   0.009   0.024   0.011   0.073
              0.036
  18  2.165   0.640   0.406   0.471   0.495   0.009   0.024   0.011   0.073
              0.036

Species: H                   
Atom  Qatom  Qorb
               1s      
  19  0.412   0.412
  20  0.412   0.412
  21  0.412   0.412
  22  0.412   0.412

mulliken: Qtot =       38.000

mulliken: Spin DOWN 

Species: Si                  
Atom  Qatom  Qorb
               3s      3py     3pz     3px     3Pdxy   3Pdyz   3Pdz2   3Pdxz   
               3Pdx2-y2
   1  1.737   0.639   0.392   0.198   0.398   0.023   0.021   0.010   0.023
              0.032
   2  2.250   0.698   0.439   0.603   0.417   0.024   0.007   0.008   0.022
              0.032
   3  2.013   0.642   0.414   0.406   0.415   0.026   0.032   0.015   0.032
              0.032
   4  2.030   0.634   0.409   0.398   0.418   0.030   0.033   0.029   0.042
              0.037
   5  1.958   0.648   0.377   0.382   0.411   0.015   0.029   0.017   0.041
              0.038
   6  2.014   0.644   0.400   0.405   0.427   0.021   0.035   0.017   0.033
              0.034
   7  2.002   0.633   0.404   0.406   0.431   0.019   0.029   0.015   0.032
              0.033
   8  1.994   0.645   0.413   0.400   0.411   0.016   0.030   0.017   0.034
              0.027
   9  2.004   0.638   0.411   0.404   0.421   0.020   0.031   0.017   0.033
              0.030
  10  1.999   0.637   0.408   0.403   0.421   0.019   0.031   0.017   0.032
              0.030
  11  2.001   0.637   0.411   0.403   0.419   0.018   0.032   0.017   0.032
              0.031
  12  1.999   0.636   0.411   0.403   0.420   0.018   0.031   0.017   0.032
              0.031
  13  1.999   0.640   0.409   0.404   0.421   0.017   0.030   0.016   0.031
              0.031
  14  2.003   0.633   0.413   0.406   0.420   0.018   0.031   0.017   0.033
              0.031
  15  2.007   0.636   0.418   0.414   0.419   0.017   0.031   0.016   0.028
              0.029
  16  2.010   0.630   0.419   0.416   0.421   0.018   0.031   0.016   0.028
              0.030
  17  2.165   0.640   0.406   0.471   0.495   0.009   0.024   0.011   0.073
              0.036
  18  2.166   0.640   0.406   0.471   0.495   0.009   0.024   0.011   0.073
              0.036

Species: H                   
Atom  Qatom  Qorb
               1s      
  19  0.412   0.412
  20  0.412   0.412
  21  0.412   0.412
  22  0.412   0.412

mulliken: Qtot =       38.000

coxmol: Writing XMOL coordinates into file si111-spinpol.xyz                                                   

siesta: Program's energy decomposition (eV):
siesta: Ebs     =      -724.922979
siesta: Eions   =      3506.048399
siesta: Ena     =      1055.453202
siesta: Ekin    =       762.691565
siesta: Enl     =       240.645315
siesta: Eso     =         0.000000
siesta: Edftu   =         0.000000
siesta: DEna    =        64.519794
siesta: DUscf   =         3.020644
siesta: DUext   =         0.000000
siesta: Exc     =      -613.450437
siesta: eta*DQ  =         0.000000
siesta: Emadel  =         0.000000
siesta: Emeta   =         0.000000
siesta: Emolmec =         0.000000
siesta: Ekinion =         0.000000
siesta: Eharris =     -1993.168317
siesta: Etot    =     -1993.168317
siesta: FreeEng =     -1993.168317

siesta: Final energy (eV):
siesta:  Band Struct. =    -724.922979
siesta:       Kinetic =     762.691565
siesta:       Hartree =   22493.527923
siesta:       Edftu   =       0.000000
siesta:       Eso     =       0.000000
siesta:    Ext. field =       0.000000
siesta:   Exch.-corr. =    -613.450437
siesta:  Ion-electron =  -45676.994136
siesta:       Ion-ion =   21041.056769
siesta:       Ekinion =       0.000000
siesta:         Total =   -1993.168317
siesta:         Fermi =      -4.342187

siesta: Atomic forces (eV/Ang):
siesta:      1    0.000049    0.231291    0.005851
siesta:      2   -0.000356   -0.231157    0.006077
siesta:      3    0.000136    0.279655    0.036503
siesta:      4    0.000590   -0.280042    0.036141
siesta:      5    0.000323    0.000072   -0.051844
siesta:      6   -0.001072    0.000144    0.118363
siesta:      7   -0.000001    0.000665   -0.105654
siesta:      8    0.001277    0.000549   -0.034460
siesta:      9   -0.003574    0.054977   -0.014816
siesta:     10   -0.004198   -0.056357   -0.016934
siesta:     11    0.001052    0.010312   -0.009760
siesta:     12    0.002351   -0.008597   -0.006652
siesta:     13   -0.000026    0.000343    0.013764
siesta:     14   -0.005166   -0.001586    0.028797
siesta:     15    0.000064    0.000078   -0.062571
siesta:     16    0.002812    0.000043   -0.100717
siesta:     17    0.000192    0.086115   -0.167877
siesta:     18    0.000239   -0.086088   -0.168035
siesta:     19   -0.211658    0.020441    0.128678
siesta:     20    0.211568    0.020674    0.128792
siesta:     21   -0.211664   -0.020402    0.128666
siesta:     22    0.211565   -0.020636    0.128789
siesta: ----------------------------------------
siesta:    Tot   -0.005499    0.000494    0.021102

siesta: Constrained forces (eV/Ang):
siesta:      1    0.000049    0.231291    0.005851
siesta:      2   -0.000356   -0.231157    0.006077
siesta:      3    0.000136    0.279655    0.036503
siesta:      4    0.000590   -0.280042    0.036141
siesta:      5    0.000323    0.000072   -0.051844
siesta:      6   -0.001072    0.000144    0.118363
siesta:      7   -0.000001    0.000665   -0.105654
siesta:      8    0.001277    0.000549   -0.034460
siesta:      9   -0.003574    0.054977   -0.014816
siesta:     10   -0.004198   -0.056357   -0.016934
siesta:     11    0.001052    0.010312   -0.009760
siesta:     12    0.002351   -0.008597   -0.006652
siesta:     13   -0.000026    0.000343    0.013764
siesta:     14   -0.005166   -0.001586    0.028797
siesta:     15    0.000064    0.000078   -0.062571
siesta:     16    0.002812    0.000043   -0.100717
siesta:     17    0.000000    0.000000    0.000000
siesta:     18    0.000000    0.000000    0.000000
siesta:     19    0.000000    0.000000    0.000000
siesta:     20    0.000000    0.000000    0.000000
siesta:     21    0.000000    0.000000    0.000000
siesta:     22    0.000000    0.000000    0.000000
siesta: ----------------------------------------
siesta:  Tot   -0.005740    0.000389   -0.157912

siesta: Stress tensor (static) (eV/Ang**3):
siesta:    -0.014262    0.000000   -0.000016
siesta:     0.000000    0.000397    0.000001
siesta:    -0.000016    0.000001   -0.000467

siesta: Cell volume =       1111.541198 Ang**3

siesta: Pressure (static):
siesta:                Solid            Molecule  Units
siesta:           0.00005203          0.00005493  Ry/Bohr**3
siesta:           0.00477721          0.00504318  eV/Ang**3
siesta:           7.65401469          8.08015719  kBar
(Free)E+ p_basis*V_orbitals  =       -1983.504532
(Free)Eharris+ p_basis*V_orbitals  =       -1983.504533
     spin moment: S , {S} =   -0.00000       0.0       0.0  -0.00000

siesta: Electric dipole (a.u.)  =   -0.000000   -0.000000   -0.193811
siesta: Electric dipole (Debye) =   -0.000000   -0.000000   -0.492619

dhscf: Vacuum level (max, mean) =    0.243667    0.057696 eV

cite: Please see "si111-spinpol.bib" for an exhaustive BiBTeX file.
cite: Please clearly indicate Siesta version in published work: v4.1-b4-351
cite: This calculation has made use of the following articles
cite: which are encouraged to be cited in a published work.
        Primary SIESTA paper
          DOI: www.doi.org/10.1088/0953-8984/14/11/302

>> End of run:  22-JAN-2021  23:23:46
Job completed
[1611354226.195267] [n-62-21-35:23858:0]          mpool.c:42   UCX  WARN  object 0x45f8700 was not returned to mpool ucp_requests
[1611354226.203416] [n-62-21-35:23861:0]          mpool.c:42   UCX  WARN  object 0x353b700 was not returned to mpool ucp_requests
