Siesta Version  : v4.1-b4-351
Architecture    : x86_64-linux-n-62-26-19
Compiler version: GNU Fortran (GCC) 9.3.0
Compiler flags  : mpifort -m64 -fPIC -O3 -march=native -ftree-vectorize -fexpensive-optimizatioons -funroll-loops -fprefetch-loop-arrays -fno-second-underscore  -flto
PP flags        : -I/dtu/sw/dcc/SL73/2020-aug/generic/build-tools/1.0/include -I/dtu/sw/dcc/SL773/2020-aug/generic/gcc/9.3.0/include -I/dtu/sw/dcc/SL73/2020-aug/generic/gcc/9.3.0/include -I/dtu/sw/dcc/SL73/2020-aug/XeonE5-2660v3/gnu/9.3.0/zlib/1.2.11/include -I/dtu/sw/dcc/SL73/2020-aug/generic/numactl/2.0.12/include -I/dtu/sw/dcc/SL73/2020-aug/XeonE5-2660v3/gnu/9.3.0/libxml2/2.9.10/include -I/dtu/sw/dcc/SL73/2020-aug/XeonE5-2660v3/gnu/9.3.0/hwloc/2.2.0/include -I/dtu/sw/dcc/SL73/2020-aug/XeonE5-2660v3/gnu/9.3.0/knem/1.1.4/include -I/dtu/sw/dcc/SL73/2020-aug/XeonE5-2660v3/gnu/9.3.0/ucx/1.8.1/include -I/dtu/sw/dcc/SL73/2020-aug/XeonE5-2660v3/gnu/9.3.0/openmpi/4.0.4/include -I/dtu/sw/dcc/SL73/2020-aug/XeonE5-2660v3/gnu/9.3.0/szip/2.1.1/include -I/dtu/sw/dcc/SL73/2020-aug/XeonE5-2660v3/gnu/9.3.0/hdf5/1.12.0/include -I/dtu/sw/dcc/SL73/2020-aug/XeonE5-2660v3/gnu/9.3.0/pnetcdf/1.12.1/include -I/dtu/sw/dcc/SL73/2020-aug/generic/gen-zlib/1.2.11/include -I/dtu/sw/dcc/SL73/2020-aug/generic/openssl/1.1.1/include -I/dtu/sw/dcc/SL73/2020-aug/generic/libssh2/1.8.2/include -I/dtu/sw/dcc/SL73/2020-aug/generic/curl/7.65.1/include -I/dtu/sw/dcc/SL73/2020-aug/XeonE5-2660v3/gnu/9.3.0/netcdf/4.7.4/include -I/dtu/sw/dcc/SL73/2020-aug/XeonE5-2660v3/gnu/9.3.0/flook/0.8.1/include -I/dtu/sw/dcc/SL73/2020-aug/XeonE5-2660v3/gnu/9.3.0/fftw/3.3.8/include -I/dtu/sw/dcc/SL73/2020-aug/XeonE5-2660v3/gnu/9.3.0/parmetis/4.0.3/include -I/dtu/sw/dcc/SL73/2020-aug/XeonE5-2660v3/gnu/9.3.0/scalapack/2.1.0/include -I/dtu/sw/dcc/SL73/2020-aug/XeonE5-2660v3/gnu/9.3.0/lapack/3.9.0/include -I/dtu/sw/dcc/SL73/2020-aug/XeonE5-2660v3/gnu/9.3.0/blis/0.7.0/include -I/dtu/sw/dcc/SL73/2020-aug/XeonE5-2660v3/gnu/9.3.0/scotch/6.0.9/include -I/dtu/sw/dcc/SL73/2020-aug/XeonE5-2660v3/gnu/9.3.0/mumps/5.3.3/include -I/dtu/sw/dcc/SL73/2020-aug/XeonE5-2660v3/gnu/9.3.0/elpa/2020.05.001/include -DSIESTA__ELPA -DMPI -DFC_HAVE_FLUSH -DFC_HAVE_ABORT -DCDF -DCDF4 -DSIESTA__FLOOK  -DNCDF -DNCDF_4 -DNCDF_PARALLEL -DTS_NOCHECKS -DSIESTA__METIS -DSIESTA__MUMPS -DSIESTA__MRRR -I/dtu/sw/dcc/SL73/2020-aug/XeonE5-2660v3/gnu/9.3.0/elpa/2020.05.001/include/elpa
Libraries       : libncdf.a libfdict.a -lnetcdff -lnetcdf -lpnetcdf -lhdf5_hl -lhdf5 -lz  -lzmuumps -lmumps_common -lesmumps -lscotch -lscotcherr -lpord -lparmetis -lmetis -lelpa -lscalapack -llapack -lblis  -L/dtu/sw/dcc/SL73/2020-aug/XeonE5-2660v3/gnu/9.3.0/flook/0.8.1/lib -Wl,-rpath=/dtu/sw/dcc/SL73/2020-aug/XeonE5-2660v3/gnu/9.3.0/flook/0.8.1/lib -lflookall -ldl  -flto -fuse-linker-plugin  -lmetis
PARALLEL version
NetCDF support
NetCDF-4 support
NetCDF-4 MPI-IO support
METIS ordering support
Lua support

* Running on 8 nodes in parallel
>> Start of run:  22-JAN-2021  23:24:00

                           ***********************       
                           *  WELCOME TO SIESTA  *       
                           ***********************       

reinit: Reading from ../si2x1h-quench.fdf

reinit: -----------------------------------------------------------------------
reinit: System Name: Si(100)-2x1 3 layers (H-saturated) Quenched Verlet
reinit: -----------------------------------------------------------------------
reinit: System Label: si2x1h-quench
reinit: -----------------------------------------------------------------------

initatom: Reading input for the pseudopotentials and atomic orbitals ----------
Species number:   1 Atomic number:   14 Label: Si
Species number:   2 Atomic number:    1 Label: H

Ground state valence configuration:   3s02  3p02
Reading pseudopotential information in formatted form from Si.psf

Valence configuration for pseudopotential generation:
3s( 2.00) rc: 1.89
3p( 2.00) rc: 1.89
3d( 0.00) rc: 1.89
4f( 0.00) rc: 1.89
Ground state valence configuration:   1s01
Reading pseudopotential information in formatted form from H.psf

Valence configuration for pseudopotential generation:
1s( 1.00) rc: 1.25
2p( 0.00) rc: 1.25
3d( 0.00) rc: 1.25
4f( 0.00) rc: 1.25
For Si, standard SIESTA heuristics set lmxkb to 3
 (one more than the basis l, including polarization orbitals).
Use PS.lmax or PS.KBprojectors blocks to override.
For H, standard SIESTA heuristics set lmxkb to 2
 (one more than the basis l, including polarization orbitals).
Use PS.lmax or PS.KBprojectors blocks to override.

<basis_specs>
===============================================================================
Si                   Z=  14    Mass=  28.090        Charge= 0.17977+309
Lmxo=1 Lmxkb= 3    BasisType=split      Semic=F
L=0  Nsemic=0  Cnfigmx=3
          i=1  nzeta=2  polorb=0  (3s)
            splnorm:   0.30000    
               vcte:    0.0000    
               rinn:    0.0000    
               qcoe:    0.0000    
               qyuk:    0.0000    
               qwid:   0.10000E-01
                rcs:    0.0000      0.0000    
            lambdas:    1.0000      1.0000    
L=1  Nsemic=0  Cnfigmx=3
          i=1  nzeta=2  polorb=1  (3p)
            splnorm:   0.30000    
               vcte:    0.0000    
               rinn:    0.0000    
               qcoe:    0.0000    
               qyuk:    0.0000    
               qwid:   0.10000E-01
                rcs:    0.0000      0.0000    
            lambdas:    1.0000      1.0000    
-------------------------------------------------------------------------------
L=0  Nkbl=1  erefs: 0.17977+309
L=1  Nkbl=1  erefs: 0.17977+309
L=2  Nkbl=1  erefs: 0.17977+309
L=3  Nkbl=1  erefs: 0.17977+309
===============================================================================
</basis_specs>

atom: Called for Si                    (Z =  14)

read_vps: Pseudopotential generation method:
read_vps: ATM3      Troullier-Martins                       
Valence charge for ps generation:    4.00000

xc_check: Exchange-correlation functional:
xc_check: Ceperley-Alder
V l=0 = -2*Zval/r beyond r=  2.5494
V l=1 = -2*Zval/r beyond r=  2.5494
V l=2 = -2*Zval/r beyond r=  2.5494
V l=3 = -2*Zval/r beyond r=  2.5494
All V_l potentials equal beyond r=  1.8652
This should be close to max(r_c) in ps generation
All pots = -2*Zval/r beyond r=  2.5494
Using large-core scheme for Vlocal

atom: Estimated core radius    2.54944

atom: Including non-local core corrections could be a good idea
atom: Maximum radius for 4*pi*r*r*local-pseudopot. charge    2.85303
atom: Maximum radius for r*vlocal+2*Zval:    2.58151
GHOST: No ghost state for L =  0
GHOST: No ghost state for L =  1
GHOST: No ghost state for L =  2
GHOST: No ghost state for L =  3

KBgen: Kleinman-Bylander projectors: 
   l= 0   rc=  1.936440   el= -0.796617   Ekb=  4.661340   kbcos=  0.299756
   l= 1   rc=  1.936440   el= -0.307040   Ekb=  1.494238   kbcos=  0.301471
   l= 2   rc=  1.936440   el=  0.002313   Ekb= -2.808672   kbcos= -0.054903
   l= 3   rc=  1.936440   el=  0.003402   Ekb= -0.959059   kbcos= -0.005513

KBgen: Total number of  Kleinman-Bylander projectors:   16
atom: -------------------------------------------------------------------------

atom: SANKEY-TYPE ORBITALS:
atom: Selected multiple-zeta basis: split     

SPLIT: Orbitals with angular momentum L= 0

SPLIT: Basis orbitals for state 3s

SPLIT: PAO cut-off radius determined from an
SPLIT: energy shift=  0.014700 Ry

   izeta = 1
                 lambda =    1.000000
                     rc =    5.264094
                 energy =   -0.784048
                kinetic =    0.554443
    potential(screened) =   -1.338491
       potential(ionic) =   -3.803943

   izeta = 2
                 rmatch =    3.899691
              splitnorm =    0.300000
                 energy =   -0.557333
                kinetic =    1.099884
    potential(screened) =   -1.657217
       potential(ionic) =   -4.272900

SPLIT: Orbitals with angular momentum L= 1

SPLIT: Basis orbitals for state 3p

SPLIT: PAO cut-off radius determined from an
SPLIT: energy shift=  0.014700 Ry

   izeta = 1
                 lambda =    1.000000
                     rc =    6.429618
                 energy =   -0.291747
                kinetic =    0.864936
    potential(screened) =   -1.156682
       potential(ionic) =   -3.408656

   izeta = 2
                 rmatch =    4.309843
              splitnorm =    0.300000
                 energy =   -0.094863
                kinetic =    1.512251
    potential(screened) =   -1.607114
       potential(ionic) =   -4.136814

POLgen: Perturbative polarization orbital with L=  2

POLgen: Polarization orbital for state 3p

   izeta = 1
                     rc =    6.429618
                 energy =    0.416453
                kinetic =    1.265989
    potential(screened) =   -0.849535
       potential(ionic) =   -2.900468
atom: Total number of Sankey-type orbitals: 13

atm_pop: Valence configuration (for local Pseudopot. screening):
 3s( 2.00)                                                            
 3p( 2.00)                                                            
Vna: chval, zval:    4.00000   4.00000

Vna:  Cut-off radius for the neutral-atom potential:   6.429618

atom: _________________________________________________________________________

<basis_specs>
===============================================================================
H                    Z=   1    Mass=  1.0100        Charge= 0.17977+309
Lmxo=0 Lmxkb= 2    BasisType=split      Semic=F
L=0  Nsemic=0  Cnfigmx=1
          i=1  nzeta=2  polorb=1  (1s)
            splnorm:   0.30000    
               vcte:    0.0000    
               rinn:    0.0000    
               qcoe:    0.0000    
               qyuk:    0.0000    
               qwid:   0.10000E-01
                rcs:    0.0000      0.0000    
            lambdas:    1.0000      1.0000    
-------------------------------------------------------------------------------
L=0  Nkbl=1  erefs: 0.17977+309
L=1  Nkbl=1  erefs: 0.17977+309
L=2  Nkbl=1  erefs: 0.17977+309
===============================================================================
</basis_specs>

atom: Called for H                     (Z =   1)

read_vps: Pseudopotential generation method:
read_vps: ATM3      Troullier-Martins                       
Valence charge for ps generation:    1.00000

xc_check: Exchange-correlation functional:
xc_check: Ceperley-Alder
V l=0 = -2*Zval/r beyond r=  1.2343
V l=1 = -2*Zval/r beyond r=  1.2189
V l=2 = -2*Zval/r beyond r=  1.2189
All V_l potentials equal beyond r=  1.2343
This should be close to max(r_c) in ps generation
All pots = -2*Zval/r beyond r=  1.2343

VLOCAL1: 99.0% of the norm of Vloc inside     28.493 Ry
VLOCAL1: 99.9% of the norm of Vloc inside     64.935 Ry
atom: Maximum radius for 4*pi*r*r*local-pseudopot. charge    1.45251
atom: Maximum radius for r*vlocal+2*Zval:    1.21892
GHOST: No ghost state for L =  0
GHOST: No ghost state for L =  1
GHOST: No ghost state for L =  2

KBgen: Kleinman-Bylander projectors: 
   l= 0   rc=  1.364359   el= -0.467325   Ekb= -2.005361   kbcos= -0.336422
   l= 1   rc=  1.434438   el=  0.001430   Ekb= -0.501708   kbcos= -0.021697
   l= 2   rc=  1.470814   el=  0.002365   Ekb= -0.190555   kbcos= -0.002281

KBgen: Total number of  Kleinman-Bylander projectors:    9
atom: -------------------------------------------------------------------------

atom: SANKEY-TYPE ORBITALS:
atom: Selected multiple-zeta basis: split     

SPLIT: Orbitals with angular momentum L= 0

SPLIT: Basis orbitals for state 1s

SPLIT: PAO cut-off radius determined from an
SPLIT: energy shift=  0.014700 Ry

   izeta = 1
                 lambda =    1.000000
                     rc =    5.075940
                 energy =   -0.454238
                kinetic =    0.905976
    potential(screened) =   -1.360214
       potential(ionic) =   -1.894198

   izeta = 2
                 rmatch =    3.195439
              splitnorm =    0.300000
                 energy =   -0.202816
                kinetic =    1.888421
    potential(screened) =   -2.091238
       potential(ionic) =   -2.676134

POLgen: Perturbative polarization orbital with L=  1

POLgen: Polarization orbital for state 1s

   izeta = 1
                     rc =    5.075940
                 energy =    0.658058
                kinetic =    1.324347
    potential(screened) =   -0.666290
       potential(ionic) =   -1.141575
atom: Total number of Sankey-type orbitals:  5

atm_pop: Valence configuration (for local Pseudopot. screening):
 1s( 1.00)                                                            
Vna: chval, zval:    1.00000   1.00000

Vna:  Cut-off radius for the neutral-atom potential:   5.075940

atom: _________________________________________________________________________

prinput: Basis input ----------------------------------------------------------

PAO.BasisType split     

%block ChemicalSpeciesLabel
    1   14 Si                      # Species index, atomic number, species label
    2    1 H                       # Species index, atomic number, species label
%endblock ChemicalSpeciesLabel

%block PAO.Basis                 # Define Basis set
Si                    2                    # Species label, number of l-shells
 n=3   0   2                         # n, l, Nzeta 
   5.264      3.900   
   1.000      1.000   
 n=3   1   2 P   1                   # n, l, Nzeta, Polarization, NzetaPol
   6.430      4.310   
   1.000      1.000   
H                     1                    # Species label, number of l-shells
 n=1   0   2 P   1                   # n, l, Nzeta, Polarization, NzetaPol
   5.076      3.195   
   1.000      1.000   
%endblock PAO.Basis

prinput: ----------------------------------------------------------------------

Dumping basis to NetCDF file Si.ion.nc
Dumping basis to NetCDF file H.ion.nc
coor:   Atomic-coordinates input format  =     Cartesian coordinates
coor:                                          (in units of alat)

siesta: Atomic coordinates (Bohr) and species
siesta:     -0.00017   2.11611   1.37174  1        1
siesta:      0.00010   6.16119   0.15912  1        2
siesta:      3.60770  -0.03789   2.38183  1        3
siesta:      3.60795   7.06713   2.48242  1        4
siesta:      3.60787   3.60787   5.10224  1        5
siesta:      3.60787  10.82360   5.10224  1        6
siesta:      1.45758   3.60787   6.88886  2        7
siesta:      5.75816   3.60787   6.88886  2        8
siesta:      1.45758  10.82360   6.88886  2        9
siesta:      5.75816  10.82360   6.88886  2       10

siesta: System type = slab      

initatomlists: Number of atoms, orbitals, and projectors:     10    98   132

coxmol: Writing XMOL coordinates into file si2x1h-quench.xyz                                                   

siesta: ******************** Simulation parameters ****************************
siesta:
siesta: The following are some of the parameters of the simulation.
siesta: A complete list of the parameters used, including default values,
siesta: can be found in file out.fdf
siesta:
redata: Spin configuration                          = none
redata: Number of spin components                   = 1
redata: Time-Reversal Symmetry                      = T
redata: Spin spiral                                 = F
redata: Long output                                 =   F
redata: Number of Atomic Species                    =        2
redata: Charge density info will appear in .RHO file
redata: Write Mulliken Pop.                         = NO
redata: Matel table size (NRTAB)                    =     1024
redata: Mesh Cutoff                                 =   100.0000 Ry
redata: Net charge of the system                    =     0.0000 |e|
redata: Min. number of SCF Iter                     =        0
redata: Max. number of SCF Iter                     =     1000
redata: SCF convergence failure will abort job
redata: SCF mix quantity                            = Hamiltonian
redata: Mix DM or H after convergence               =   F
redata: Recompute H after scf cycle                 =   F
redata: Mix DM in first SCF step                    =   T
redata: Write Pulay info on disk                    =   F
redata: New DM Occupancy tolerance                  = 0.000000000001
redata: No kicks to SCF
redata: DM Mixing Weight for Kicks                  =     0.5000
redata: Require Harris convergence for SCF          =   F
redata: Harris energy tolerance for SCF             =     0.000100 eV
redata: Require DM convergence for SCF              =   T
redata: DM tolerance for SCF                        =     0.000100
redata: Require EDM convergence for SCF             =   F
redata: EDM tolerance for SCF                       =     0.001000 eV
redata: Require H convergence for SCF               =   T
redata: Hamiltonian tolerance for SCF               =     0.001000 eV
redata: Require (free) Energy convergence for SCF   =   F
redata: (free) Energy tolerance for SCF             =     0.000100 eV
redata: Using Saved Data (generic)                  =   F
redata: Use continuation files for DM               =   F
redata: Neglect nonoverlap interactions             =   F
redata: Method of Calculation                       = Diagonalization
redata: Electronic Temperature                      =   299.9869 K
redata: Fix the spin of the system                  =   F
redata: Dynamics option                             = Verlet MD run
redata: Initial MD time step                        =        1
redata:   Final MD time step                        =       50
redata: Length of MD time step                      =     1.0000 fs
redata: Initial Temperature of MD run               =   100.0000 K
redata: Perform a MD quench                         =   T
mix.SCF: Pulay mixing                            = Pulay
mix.SCF:    Variant                              = stable
mix.SCF:    History steps                        = 3
mix.SCF:    Linear mixing weight                 =     0.100000
mix.SCF:    Mixing weight                        =     0.100000
mix.SCF:    SVD condition                        = 0.1000E-07
redata: Save all siesta data in one NC              =   F
redata: ***********************************************************************

%block SCF.Mixers
  Pulay
%endblock SCF.Mixers

%block SCF.Mixer.Pulay
  # Mixing method
  method pulay
  variant stable

  # Mixing options
  weight 0.1000
  weight.linear 0.1000
  history 3
%endblock SCF.Mixer.Pulay

Size of DM history Fstack: 1
Total number of electrons:    28.000000
Total ionic charge:    28.000000

* ProcessorY, Blocksize:    2  13


* Orbital distribution balance (max,min):    13     7

 Kpoints in:            3 . Kpoints trimmed:            3

siesta: k-grid: Number of k-points =     3
siesta: k-grid: Cutoff (effective) =     5.728 Ang
siesta: k-grid: Supercell and displacements
siesta: k-grid:    3   0   0      0.000
siesta: k-grid:    0   2   0      0.500
siesta: k-grid:    0   0   1      0.000

diag: Algorithm                                     = D&C
diag: Parallel over k                               =   F
diag: Use parallel 2D distribution                  =   T
diag: Parallel block-size                           = 13
diag: Parallel distribution                         =     2 x     4
diag: Used triangular part                          = Lower
diag: Absolute tolerance                            =  0.100E-15
diag: Orthogonalization factor                      =  0.100E-05
diag: Memory factor                                 =  1.0000

superc: Internal auxiliary supercell:     5 x     3 x     1  =      15
superc: Number of atoms, orbitals, and projectors:    150   1470   1980

siesta: Constraint (6): pos
  [ 5 -- 10 ]


ts: **************************************************************
ts: Save H and S matrices                           =    F
ts: Save DM and EDM matrices                        =    F
ts: Only save the overlap matrix S                  =    F
ts: **************************************************************

************************ Begin: TS CHECKS AND WARNINGS ************************
************************ End: TS CHECKS AND WARNINGS **************************


                     ====================================
                        Begin MD quenched step =      1
                     ====================================

outcoor: Atomic coordinates (scaled):                       
   -0.00002372    0.29326368    0.19010387   1       1  Si
    0.00001337    0.85385554    0.02205212   1       2  Si
    0.49997747   -0.00525118    0.33008893   1       3  Si
    0.50001096    0.97940531    0.34402895   1       4  Si
    0.50000000    0.50000000    0.70710000   1       5  Si
    0.50000000    1.50000000    0.70710000   1       6  Si
    0.20200000    0.50000000    0.95470000   2       7  H
    0.79800000    0.50000000    0.95470000   2       8  H
    0.20200000    1.50000000    0.95470000   2       9  H
    0.79800000    1.50000000    0.95470000   2      10  H

superc: Internal auxiliary supercell:     5 x     3 x     1  =      15
superc: Number of atoms, orbitals, and projectors:    150   1470   1980

outcell: Unit cell vectors (Ang):
        3.818400    0.000000    0.000000
        0.000000    7.636800    0.000000
        0.000000    0.000000   11.455200

outcell: Cell vector modules (Ang)   :    3.818400    7.636800   11.455200
outcell: Cell angles (23,13,12) (deg):     90.0000     90.0000     90.0000
outcell: Cell volume (Ang**3)        :    334.0377
<dSpData1D:S at geom step 1
  <sparsity:sparsity for geom step 1
    nrows_g=98 nrows=13 sparsity=.6013 nnzs=5775, refcount: 7>
  <dData1D:(new from dSpData1D) n=5775, refcount: 1>
refcount: 1>
new_DM -- step:     1
Initializing Density Matrix...
DM filled with atomic data:
<dSpData2D:DM initialized from atoms
  <sparsity:sparsity for geom step 1
    nrows_g=98 nrows=13 sparsity=.6013 nnzs=5775, refcount: 8>
  <dData2D:DM n=5775 m=1, refcount: 1>
refcount: 1>
No. of atoms with KB's overlaping orbs in proc 0. Max # of overlaps:      16     158
New grid distribution:   1
           1       1:   12    1:   12    1:    9
           2       1:   12    1:   12   10:   18
           3       1:   12    1:   12   19:   27
           4       1:   12    1:   12   28:   36
           5       1:   12   13:   24    1:    9
           6       1:   12   13:   24   10:   18
           7       1:   12   13:   24   19:   27
           8       1:   12   13:   24   28:   36

InitMesh: MESH =    24 x    48 x    72 =       82944
InitMesh: (bp) =    12 x    24 x    36 =       10368
InitMesh: Mesh cutoff (required, used) =   100.000   109.185 Ry
ExtMesh (bp) on 0 =    56 x    56 x    53 =      166208
New grid distribution:   2
           1       1:   12   11:   24    8:   11
           2       1:   12   11:   24    5:    7
           3       1:   12    1:   10   12:   36
           4       1:   12    1:   10    8:   11
           5       1:   12   11:   24    1:    4
           6       1:   12    1:   10    1:    4
           7       1:   12   11:   24   12:   36
           8       1:   12    1:   10    5:    7
New grid distribution:   3
           1       1:   12   13:   24    1:    7
           2       1:   12    1:   12    8:   14
           3       1:   12    1:   12   15:   29
           4       1:   12    1:   12   30:   36
           5       1:   12    1:   12    1:    7
           6       1:   12   13:   24    8:   14
           7       1:   12   13:   24   15:   29
           8       1:   12   13:   24   30:   36
Setting up quadratic distribution...
ExtMesh (bp) on 0 =    56 x    58 x    48 =      155904
PhiOnMesh: Number of (b)points on node 0 =                  672
PhiOnMesh: nlist on node 0 =                47284

stepf: Fermi-Dirac step function

siesta: Program's energy decomposition (eV):
siesta: Ebs     =      -264.743636
siesta: Eions   =      1221.235657
siesta: Ena     =       369.291243
siesta: Ekin    =       313.279265
siesta: Enl     =        66.639463
siesta: Eso     =         0.000000
siesta: Edftu   =         0.000000
siesta: DEna    =        -2.075716
siesta: DUscf   =         4.722784
siesta: DUext   =         0.000000
siesta: Exc     =      -233.024750
siesta: eta*DQ  =         0.000000
siesta: Emadel  =         0.000000
siesta: Emeta   =         0.000000
siesta: Emolmec =         0.000000
siesta: Ekinion =         0.000000
siesta: Eharris =      -699.959685
siesta: Etot    =      -702.403368
siesta: FreeEng =      -702.403368

        iscf     Eharris(eV)        E_KS(eV)     FreeEng(eV)     dDmax    Ef(eV) dHmax(eV)
   scf:    1     -699.959685     -702.403368     -702.403368  1.756308 -4.543012  5.351306
timer: Routine,Calls,Time,% = IterSCF        1       0.206   8.54
   scf:    2     -703.643206     -703.072464     -703.072464  0.017070 -4.533819  3.941483
   scf:    3     -703.859221     -703.645744     -703.645744  0.036250 -4.487386  1.131499
   scf:    4     -703.781081     -703.725802     -703.725802  0.019671 -4.370125  0.556384
   scf:    5     -703.753660     -703.741966     -703.741966  0.008334 -4.302163  0.317888
   scf:    6     -703.748500     -703.745751     -703.745751  0.004240 -4.259717  0.213767
   scf:    7     -703.751744     -703.749734     -703.749734  0.002947 -4.232412  0.083829
   scf:    8     -703.750415     -703.750132     -703.750132  0.000791 -4.228780  0.046979
   scf:    9     -703.750351     -703.750275     -703.750275  0.000789 -4.222302  0.026861
   scf:   10     -703.750348     -703.750313     -703.750313  0.000252 -4.221255  0.025680
   scf:   11     -703.750422     -703.750375     -703.750375  0.000672 -4.217739  0.014188
   scf:   12     -703.750404     -703.750391     -703.750391  0.000306 -4.215329  0.007087
   scf:   13     -703.750397     -703.750394     -703.750394  0.000089 -4.219555  0.004620
   scf:   14     -703.750395     -703.750395     -703.750395  0.000075 -4.218998  0.002456
   scf:   15     -703.750396     -703.750395     -703.750395  0.000033 -4.218825  0.001699
   scf:   16     -703.750397     -703.750397     -703.750397  0.000090 -4.218573  0.000869

SCF Convergence by DM+H criterion
max |DM_out - DM_in|         :     0.0000900475
max |H_out - H_in|      (eV) :     0.0008692179
SCF cycle converged after 16 iterations

Using DM_out to compute the final energy and forces
No. of atoms with KB's overlaping orbs in proc 0. Max # of overlaps:      16     158

siesta: E_KS(eV) =             -703.7504

siesta: E_KS - E_eggbox =      -703.7504

siesta: Atomic forces (eV/Ang):
     1   -0.000151   -0.438073   -0.015127
     2   -0.000139    0.354272   -0.389229
     3    0.000059    0.019241    0.323728
     4   -0.000108    0.405939    0.356829
     5   -0.000050    0.137749    0.422207
     6   -0.000023   -0.427593   -0.979093
     7   -0.299900   -0.124010    0.197743
     8    0.299919   -0.124042    0.197714
     9   -0.220022    0.084906   -0.043631
    10    0.220032    0.084997   -0.043646
----------------------------------------
   Tot   -0.000385   -0.026615    0.027495
----------------------------------------
   Max    0.979093
   Res    0.294903    sqrt( Sum f_i^2 / 3N )
----------------------------------------
   Max    0.438073    constrained

Stress tensor Voigt[x,y,z,yz,xz,xy] (kbar):      -59.81       16.01       -1.81        3.56        0.02        0.12
(Free)E + p*V (eV/cell)     -700.5812
Target enthalpy (eV/cell)     -703.7504

siesta: Stress tensor (static) (eV/Ang**3):
        -0.037285   -0.000002    0.000000
        -0.000002    0.010122    0.002251
         0.000000    0.002251   -0.001070

siesta: Pressure (static):         15.07781411  kBar

siesta: Stress tensor (total) (eV/Ang**3):
        -0.037329    0.000072    0.000014
         0.000072    0.009994    0.002225
         0.000014    0.002225   -0.001127

siesta: Pressure (total):         15.20091286  kBar

siesta: Temp_ion =      65.296 K

                     ====================================
                        Begin MD quenched step =      2
                     ====================================

outcoor: Atomic coordinates (scaled):                       
   -0.00002373    0.29234378    0.19010319   1       1  Si
   -0.00008579    0.85401727    0.02187350   1       2  Si
    0.50023103   -0.00525032    0.33010339   1       3  Si
    0.49994863    0.97971315    0.34445052   1       4  Si
    0.50000000    0.50000000    0.70710000   1       5  Si
    0.50000000    1.50000000    0.70710000   1       6  Si
    0.20200000    0.50000000    0.95470000   2       7  H
    0.79800000    0.50000000    0.95470000   2       8  H
    0.20200000    1.50000000    0.95470000   2       9  H
    0.79800000    1.50000000    0.95470000   2      10  H

superc: Internal auxiliary supercell:     5 x     3 x     1  =      15
superc: Number of atoms, orbitals, and projectors:    150   1470   1980

outcell: Unit cell vectors (Ang):
        3.818400    0.000000    0.000000
        0.000000    7.636800    0.000000
        0.000000    0.000000   11.455200

outcell: Cell vector modules (Ang)   :    3.818400    7.636800   11.455200
outcell: Cell angles (23,13,12) (deg):     90.0000     90.0000     90.0000
outcell: Cell volume (Ang**3)        :    334.0377
<dSpData1D:S at geom step 2
  <sparsity:sparsity for geom step 2
    nrows_g=98 nrows=13 sparsity=.6013 nnzs=5775, refcount: 7>
  <dData1D:(new from dSpData1D) n=5775, refcount: 1>
refcount: 1>
new_DM -- step:     2
Re-using DM from previous geometries...
Number of DMs in history: 1
 DM extrapolation coefficients: 
1   1.00000
New DM after history re-use:
<dSpData2D:SpM extrapolated using coords
  <sparsity:sparsity for geom step 2
    nrows_g=98 nrows=13 sparsity=.6013 nnzs=5775, refcount: 9>
  <dData2D:(temp array for extrapolation) n=5775 m=1, refcount: 1>
refcount: 1>
No. of atoms with KB's overlaping orbs in proc 0. Max # of overlaps:      16     158
New grid distribution:   1
           1       1:   12    1:   12    1:    9
           2       1:   12    1:   12   10:   18
           3       1:   12    1:   12   19:   27
           4       1:   12    1:   12   28:   36
           5       1:   12   13:   24    1:    9
           6       1:   12   13:   24   10:   18
           7       1:   12   13:   24   19:   27
           8       1:   12   13:   24   28:   36

InitMesh: MESH =    24 x    48 x    72 =       82944
InitMesh: (bp) =    12 x    24 x    36 =       10368
InitMesh: Mesh cutoff (required, used) =   100.000   109.185 Ry
ExtMesh (bp) on 0 =    56 x    56 x    53 =      166208
New grid distribution:   2
           1       1:   12   11:   24    8:   11
           2       1:   12   11:   24    5:    7
           3       1:   12    1:   10   12:   36
           4       1:   12    1:   10    8:   11
           5       1:   12   11:   24    1:    4
           6       1:   12    1:   10    1:    4
           7       1:   12   11:   24   12:   36
           8       1:   12    1:   10    5:    7
New grid distribution:   3
           1       1:   12   13:   24    1:    7
           2       1:   12    1:   12    8:   14
           3       1:   12    1:   12   15:   29
           4       1:   12    1:   12   30:   36
           5       1:   12    1:   12    1:    7
           6       1:   12   13:   24    8:   14
           7       1:   12   13:   24   15:   29
           8       1:   12   13:   24   30:   36
Setting up quadratic distribution...
ExtMesh (bp) on 0 =    56 x    58 x    48 =      155904
PhiOnMesh: Number of (b)points on node 0 =                  672
PhiOnMesh: nlist on node 0 =                47277

        iscf     Eharris(eV)        E_KS(eV)     FreeEng(eV)     dDmax    Ef(eV) dHmax(eV)
   scf:    1     -703.758318     -703.752100     -703.752100  0.005669 -4.216346  0.126704
   scf:    2     -703.662339     -703.724496     -703.724496  0.032538 -4.194420  0.581399
   scf:    3     -703.757932     -703.753304     -703.753304  0.027551 -4.217530  0.008041
   scf:    4     -703.753321     -703.753317     -703.753317  0.000110 -4.216383  0.002319
   scf:    5     -703.753318     -703.753318     -703.753318  0.000105 -4.216225  0.000852
   scf:    6     -703.753318     -703.753318     -703.753318  0.000008 -4.216213  0.000612

SCF Convergence by DM+H criterion
max |DM_out - DM_in|         :     0.0000078221
max |H_out - H_in|      (eV) :     0.0006122312
SCF cycle converged after 6 iterations

Using DM_out to compute the final energy and forces
No. of atoms with KB's overlaping orbs in proc 0. Max # of overlaps:      16     158

siesta: E_KS(eV) =             -703.7533

siesta: Atomic forces (eV/Ang):
     1    0.012939   -0.369613   -0.033754
     2    0.001304    0.318880   -0.365344
     3   -0.014522   -0.002684    0.334070
     4   -0.000291    0.390213    0.334766
     5    0.000297    0.140940    0.419562
     6    0.000870   -0.421478   -0.972057
     7   -0.300447   -0.126559    0.198043
     8    0.300133   -0.125711    0.198209
     9   -0.220213    0.086054   -0.043233
    10    0.220002    0.084883   -0.042839
----------------------------------------
   Tot    0.000072   -0.025075    0.027422
----------------------------------------
   Max    0.972057
   Res    0.287144    sqrt( Sum f_i^2 / 3N )
----------------------------------------
   Max    0.390213    constrained

Stress tensor Voigt[x,y,z,yz,xz,xy] (kbar):      -59.90       16.28       -1.74        3.55        0.04       -0.07
(Free)E + p*V (eV/cell)     -700.6008
Target enthalpy (eV/cell)     -703.7533

siesta: Stress tensor (static) (eV/Ang**3):
        -0.037375   -0.000046    0.000023
        -0.000046    0.010275    0.002225
         0.000023    0.002225   -0.001062

siesta: Pressure (static):         15.04054155  kBar

siesta: Stress tensor (total) (eV/Ang**3):
        -0.037385   -0.000042    0.000024
        -0.000042    0.010158    0.002213
         0.000024    0.002213   -0.001087

siesta: Pressure (total):         15.12091998  kBar

siesta: Temp_ion =      68.744 K

                     ====================================
                        Begin MD quenched step =      3
                     ====================================

outcoor: Atomic coordinates (scaled):                       
   -0.00002258    0.29139086    0.19009950   1       1  Si
   -0.00008574    0.85420748    0.02166226   1       2  Si
    0.50023038   -0.00525044    0.33014768   1       3  Si
    0.49988628    0.98005583    0.34490198   1       4  Si
    0.50000000    0.50000000    0.70710000   1       5  Si
    0.50000000    1.50000000    0.70710000   1       6  Si
    0.20200000    0.50000000    0.95470000   2       7  H
    0.79800000    0.50000000    0.95470000   2       8  H
    0.20200000    1.50000000    0.95470000   2       9  H
    0.79800000    1.50000000    0.95470000   2      10  H

superc: Internal auxiliary supercell:     5 x     3 x     1  =      15
superc: Number of atoms, orbitals, and projectors:    150   1470   1980

outcell: Unit cell vectors (Ang):
        3.818400    0.000000    0.000000
        0.000000    7.636800    0.000000
        0.000000    0.000000   11.455200

outcell: Cell vector modules (Ang)   :    3.818400    7.636800   11.455200
outcell: Cell angles (23,13,12) (deg):     90.0000     90.0000     90.0000
outcell: Cell volume (Ang**3)        :    334.0377
<dSpData1D:S at geom step 3
  <sparsity:sparsity for geom step 3
    nrows_g=98 nrows=13 sparsity=.5730 nnzs=5503, refcount: 7>
  <dData1D:(new from dSpData1D) n=5503, refcount: 1>
refcount: 1>
new_DM -- step:     3
Re-using DM from previous geometries...
Number of DMs in history: 1
 DM extrapolation coefficients: 
1   1.00000
New DM after history re-use:
<dSpData2D:SpM extrapolated using coords
  <sparsity:sparsity for geom step 3
    nrows_g=98 nrows=13 sparsity=.5730 nnzs=5503, refcount: 9>
  <dData2D:(temp array for extrapolation) n=5503 m=1, refcount: 1>
refcount: 1>
No. of atoms with KB's overlaping orbs in proc 0. Max # of overlaps:      14     142
New grid distribution:   1
           1       1:   12    1:   12    1:    9
           2       1:   12    1:   12   10:   18
           3       1:   12    1:   12   19:   27
           4       1:   12    1:   12   28:   36
           5       1:   12   13:   24    1:    9
           6       1:   12   13:   24   10:   18
           7       1:   12   13:   24   19:   27
           8       1:   12   13:   24   28:   36

InitMesh: MESH =    24 x    48 x    72 =       82944
InitMesh: (bp) =    12 x    24 x    36 =       10368
InitMesh: Mesh cutoff (required, used) =   100.000   109.185 Ry
ExtMesh (bp) on 0 =    56 x    56 x    53 =      166208
New grid distribution:   2
           1       1:   12   11:   24    8:   11
           2       1:   12   11:   24    5:    7
           3       1:   12    1:   10   12:   36
           4       1:   12    1:   10    8:   11
           5       1:   12   11:   24    1:    4
           6       1:   12    1:   10    1:    4
           7       1:   12   11:   24   12:   36
           8       1:   12    1:   10    5:    7
New grid distribution:   3
           1       1:   12   13:   24    1:    7
           2       1:   12    1:   12    8:   14
           3       1:   12    1:   12   15:   29
           4       1:   12    1:   12   30:   36
           5       1:   12    1:   12    1:    7
           6       1:   12   13:   24    8:   14
           7       1:   12   13:   24   15:   29
           8       1:   12   13:   24   30:   36
Setting up quadratic distribution...
ExtMesh (bp) on 0 =    56 x    58 x    48 =      155904
PhiOnMesh: Number of (b)points on node 0 =                  672
PhiOnMesh: nlist on node 0 =                47285

        iscf     Eharris(eV)        E_KS(eV)     FreeEng(eV)     dDmax    Ef(eV) dHmax(eV)
   scf:    1     -703.761109     -703.754747     -703.754747  0.006211 -4.224658  0.134884
   scf:    2     -703.651598     -703.723015     -703.723015  0.034957 -4.193556  0.622946
   scf:    3     -703.761412     -703.756123     -703.756123  0.029632 -4.215482  0.008875
   scf:    4     -703.756141     -703.756137     -703.756137  0.000116 -4.214277  0.002415
   scf:    5     -703.756138     -703.756138     -703.756138  0.000114 -4.214094  0.000863
   scf:    6     -703.756138     -703.756138     -703.756138  0.000007 -4.214076  0.000572

SCF Convergence by DM+H criterion
max |DM_out - DM_in|         :     0.0000074988
max |H_out - H_in|      (eV) :     0.0005718906
SCF cycle converged after 6 iterations

Using DM_out to compute the final energy and forces
No. of atoms with KB's overlaping orbs in proc 0. Max # of overlaps:      14     142

siesta: E_KS(eV) =             -703.7561

siesta: Atomic forces (eV/Ang):
     1    0.012704   -0.295186   -0.051435
     2   -0.001151    0.281946   -0.340683
     3   -0.014209   -0.025829    0.344317
     4    0.002961    0.369605    0.309078
     5    0.000323    0.145131    0.417367
     6    0.000536   -0.414994   -0.963467
     7   -0.300904   -0.128900    0.198493
     8    0.300575   -0.127945    0.198609
     9   -0.220042    0.086772   -0.042664
    10    0.219904    0.085370   -0.042414
----------------------------------------
   Tot    0.000696   -0.024028    0.027201
----------------------------------------
   Max    0.963467
   Res    0.279329    sqrt( Sum f_i^2 / 3N )
----------------------------------------
   Max    0.369605    constrained

Stress tensor Voigt[x,y,z,yz,xz,xy] (kbar):      -59.93       16.54       -1.72        3.50        0.03       -0.08
(Free)E + p*V (eV/cell)     -700.6209
Target enthalpy (eV/cell)     -703.7561

siesta: Stress tensor (static) (eV/Ang**3):
        -0.037406   -0.000052    0.000014
        -0.000052    0.010454    0.002201
         0.000014    0.002201   -0.001047

siesta: Pressure (static):         14.95320322  kBar

siesta: Stress tensor (total) (eV/Ang**3):
        -0.037406   -0.000049    0.000017
        -0.000049    0.010325    0.002187
         0.000018    0.002187   -0.001076

siesta: Pressure (total):         15.03782597  kBar

siesta: Temp_ion =      75.796 K

                     ====================================
                        Begin MD quenched step =      4
                     ====================================

outcoor: Atomic coordinates (scaled):                       
   -0.00002029    0.29041158    0.19009122   1       1  Si
   -0.00008579    0.85442287    0.02142059   1       2  Si
    0.50022846   -0.00525287    0.33022272   1       3  Si
    0.49988641    0.98043153    0.34538105   1       4  Si
    0.50000000    0.50000000    0.70710000   1       5  Si
    0.50000000    1.50000000    0.70710000   1       6  Si
    0.20200000    0.50000000    0.95470000   2       7  H
    0.79800000    0.50000000    0.95470000   2       8  H
    0.20200000    1.50000000    0.95470000   2       9  H
    0.79800000    1.50000000    0.95470000   2      10  H

superc: Internal auxiliary supercell:     5 x     3 x     1  =      15
superc: Number of atoms, orbitals, and projectors:    150   1470   1980

outcell: Unit cell vectors (Ang):
        3.818400    0.000000    0.000000
        0.000000    7.636800    0.000000
        0.000000    0.000000   11.455200

outcell: Cell vector modules (Ang)   :    3.818400    7.636800   11.455200
outcell: Cell angles (23,13,12) (deg):     90.0000     90.0000     90.0000
outcell: Cell volume (Ang**3)        :    334.0377
<dSpData1D:S at geom step 4
  <sparsity:sparsity for geom step 4
    nrows_g=98 nrows=13 sparsity=.5493 nnzs=5275, refcount: 7>
  <dData1D:(new from dSpData1D) n=5275, refcount: 1>
refcount: 1>
new_DM -- step:     4
Re-using DM from previous geometries...
Number of DMs in history: 1
 DM extrapolation coefficients: 
1   1.00000
New DM after history re-use:
<dSpData2D:SpM extrapolated using coords
  <sparsity:sparsity for geom step 4
    nrows_g=98 nrows=13 sparsity=.5493 nnzs=5275, refcount: 9>
  <dData2D:(temp array for extrapolation) n=5275 m=1, refcount: 1>
refcount: 1>
No. of atoms with KB's overlaping orbs in proc 0. Max # of overlaps:      14     136
New grid distribution:   1
           1       1:   12    1:   12    1:    9
           2       1:   12    1:   12   10:   18
           3       1:   12    1:   12   19:   27
           4       1:   12    1:   12   28:   36
           5       1:   12   13:   24    1:    9
           6       1:   12   13:   24   10:   18
           7       1:   12   13:   24   19:   27
           8       1:   12   13:   24   28:   36

InitMesh: MESH =    24 x    48 x    72 =       82944
InitMesh: (bp) =    12 x    24 x    36 =       10368
InitMesh: Mesh cutoff (required, used) =   100.000   109.185 Ry
ExtMesh (bp) on 0 =    56 x    56 x    53 =      166208
New grid distribution:   2
           1       1:   12   11:   24    8:   11
           2       1:   12   11:   24    5:    7
           3       1:   12    1:   10   12:   36
           4       1:   12    1:   10    8:   11
           5       1:   12   11:   24    1:    4
           6       1:   12    1:   10    1:    4
           7       1:   12   11:   24   12:   36
           8       1:   12    1:   10    5:    7
New grid distribution:   3
           1       1:   12   13:   24    1:    7
           2       1:   12    1:   12    8:   14
           3       1:   12    1:   12   15:   29
           4       1:   12    1:   12   30:   36
           5       1:   12    1:   12    1:    7
           6       1:   12   13:   24    8:   14
           7       1:   12   13:   24   15:   29
           8       1:   12   13:   24   30:   36
Setting up quadratic distribution...
ExtMesh (bp) on 0 =    56 x    58 x    48 =      155904
PhiOnMesh: Number of (b)points on node 0 =                  672
PhiOnMesh: nlist on node 0 =                47299

        iscf     Eharris(eV)        E_KS(eV)     FreeEng(eV)     dDmax    Ef(eV) dHmax(eV)
   scf:    1     -703.763584     -703.757198     -703.757198  0.006589 -4.222396  0.144032
   scf:    2     -703.639027     -703.720828     -703.720828  0.037481 -4.192654  0.667348
   scf:    3     -703.764790     -703.758762     -703.758762  0.031811 -4.218551  0.009566
   scf:    4     -703.758783     -703.758778     -703.758778  0.000122 -4.217280  0.002737
   scf:    5     -703.758779     -703.758779     -703.758779  0.000129 -4.217072  0.000915
   scf:    6     -703.758779     -703.758779     -703.758779  0.000008 -4.217053  0.000605

SCF Convergence by DM+H criterion
max |DM_out - DM_in|         :     0.0000080220
max |H_out - H_in|      (eV) :     0.0006051852
SCF cycle converged after 6 iterations

Using DM_out to compute the final energy and forces
No. of atoms with KB's overlaping orbs in proc 0. Max # of overlaps:      14     136

siesta: E_KS(eV) =             -703.7588

siesta: Atomic forces (eV/Ang):
     1    0.012678   -0.222334   -0.071179
     2   -0.000019    0.242671   -0.313214
     3   -0.014028   -0.048889    0.353979
     4    0.003098    0.346799    0.280940
     5    0.000332    0.150081    0.415123
     6    0.000526   -0.408183   -0.953819
     7   -0.301355   -0.131249    0.198955
     8    0.301021   -0.130303    0.199062
     9   -0.219906    0.087370   -0.042104
    10    0.219766    0.085977   -0.041865
----------------------------------------
   Tot    0.002113   -0.028061    0.025879
----------------------------------------
   Max    0.953819
   Res    0.272031    sqrt( Sum f_i^2 / 3N )
----------------------------------------
   Max    0.353979    constrained

Stress tensor Voigt[x,y,z,yz,xz,xy] (kbar):      -59.97       16.83       -1.71        3.42        0.04       -0.09
(Free)E + p*V (eV/cell)     -700.6417
Target enthalpy (eV/cell)     -703.7588

siesta: Stress tensor (static) (eV/Ang**3):
        -0.037429   -0.000055    0.000022
        -0.000055    0.010644    0.002150
         0.000022    0.002150   -0.001035

siesta: Pressure (static):         14.85740271  kBar

siesta: Stress tensor (total) (eV/Ang**3):
        -0.037429   -0.000055    0.000022
        -0.000055    0.010504    0.002134
         0.000022    0.002134   -0.001069

siesta: Pressure (total):         14.95070685  kBar

siesta: Temp_ion =      82.596 K

                     ====================================
                        Begin MD quenched step =      5
                     ====================================

outcoor: Atomic coordinates (scaled):                       
   -0.00001688    0.28941245    0.19007658   1       1  Si
   -0.00008584    0.85465993    0.02115095   1       2  Si
    0.50022529   -0.00525966    0.33032937   1       3  Si
    0.49988682    0.98083820    0.34588521   1       4  Si
    0.50000000    0.50000000    0.70710000   1       5  Si
    0.50000000    1.50000000    0.70710000   1       6  Si
    0.20200000    0.50000000    0.95470000   2       7  H
    0.79800000    0.50000000    0.95470000   2       8  H
    0.20200000    1.50000000    0.95470000   2       9  H
    0.79800000    1.50000000    0.95470000   2      10  H

superc: Internal auxiliary supercell:     5 x     3 x     1  =      15
superc: Number of atoms, orbitals, and projectors:    150   1470   1980

outcell: Unit cell vectors (Ang):
        3.818400    0.000000    0.000000
        0.000000    7.636800    0.000000
        0.000000    0.000000   11.455200

outcell: Cell vector modules (Ang)   :    3.818400    7.636800   11.455200
outcell: Cell angles (23,13,12) (deg):     90.0000     90.0000     90.0000
outcell: Cell volume (Ang**3)        :    334.0377
<dSpData1D:S at geom step 5
  <sparsity:sparsity for geom step 5
    nrows_g=98 nrows=13 sparsity=.5493 nnzs=5275, refcount: 7>
  <dData1D:(new from dSpData1D) n=5275, refcount: 1>
refcount: 1>
new_DM -- step:     5
Re-using DM from previous geometries...
Number of DMs in history: 1
 DM extrapolation coefficients: 
1   1.00000
New DM after history re-use:
<dSpData2D:SpM extrapolated using coords
  <sparsity:sparsity for geom step 5
    nrows_g=98 nrows=13 sparsity=.5493 nnzs=5275, refcount: 9>
  <dData2D:(temp array for extrapolation) n=5275 m=1, refcount: 1>
refcount: 1>
No. of atoms with KB's overlaping orbs in proc 0. Max # of overlaps:      14     136
New grid distribution:   1
           1       1:   12    1:   12    1:    9
           2       1:   12    1:   12   10:   18
           3       1:   12    1:   12   19:   27
           4       1:   12    1:   12   28:   36
           5       1:   12   13:   24    1:    9
           6       1:   12   13:   24   10:   18
           7       1:   12   13:   24   19:   27
           8       1:   12   13:   24   28:   36

InitMesh: MESH =    24 x    48 x    72 =       82944
InitMesh: (bp) =    12 x    24 x    36 =       10368
InitMesh: Mesh cutoff (required, used) =   100.000   109.185 Ry
ExtMesh (bp) on 0 =    56 x    56 x    53 =      166208
New grid distribution:   2
           1       1:   12   11:   24    8:   11
           2       1:   12   11:   24    5:    7
           3       1:   12    1:   10   12:   36
           4       1:   12    1:   10    8:   11
           5       1:   12   11:   24    1:    4
           6       1:   12    1:   10    1:    4
           7       1:   12   11:   24   12:   36
           8       1:   12    1:   10    5:    7
New grid distribution:   3
           1       1:   12   13:   24    1:    7
           2       1:   12    1:   12    8:   14
           3       1:   12    1:   12   15:   29
           4       1:   12    1:   12   30:   36
           5       1:   12    1:   12    1:    7
           6       1:   12   13:   24    8:   14
           7       1:   12   13:   24   15:   29
           8       1:   12   13:   24   30:   36
Setting up quadratic distribution...
ExtMesh (bp) on 0 =    56 x    58 x    48 =      155904
PhiOnMesh: Number of (b)points on node 0 =                  672
PhiOnMesh: nlist on node 0 =                47309

        iscf     Eharris(eV)        E_KS(eV)     FreeEng(eV)     dDmax    Ef(eV) dHmax(eV)
   scf:    1     -703.765763     -703.759410     -703.759410  0.006932 -4.225303  0.152183
   scf:    2     -703.626749     -703.718564     -703.718564  0.039775 -4.191586  0.707589
   scf:    3     -703.767887     -703.761154     -703.761154  0.033800 -4.216316  0.010237
   scf:    4     -703.761177     -703.761172     -703.761172  0.000127 -4.214986  0.003011
   scf:    5     -703.761173     -703.761173     -703.761173  0.000142 -4.214755  0.000955
   scf:    6     -703.761173     -703.761173     -703.761173  0.000009 -4.214733  0.000630

SCF Convergence by DM+H criterion
max |DM_out - DM_in|         :     0.0000085993
max |H_out - H_in|      (eV) :     0.0006297151
SCF cycle converged after 6 iterations

Using DM_out to compute the final energy and forces
No. of atoms with KB's overlaping orbs in proc 0. Max # of overlaps:      14     136

siesta: E_KS(eV) =             -703.7612

siesta: Atomic forces (eV/Ang):
     1    0.011991   -0.147701   -0.090492
     2   -0.000980    0.204718   -0.284822
     3   -0.013641   -0.071811    0.362776
     4    0.002746    0.321970    0.252068
     5    0.000327    0.155741    0.412901
     6    0.000507   -0.401094   -0.943077
     7   -0.301826   -0.133660    0.199457
     8    0.301501   -0.132729    0.199561
     9   -0.219762    0.087969   -0.041496
    10    0.219626    0.086596   -0.041265
----------------------------------------
   Tot    0.000489   -0.029998    0.025612
----------------------------------------
   Max    0.943077
   Res    0.265496    sqrt( Sum f_i^2 / 3N )
----------------------------------------
   Max    0.362776    constrained

Stress tensor Voigt[x,y,z,yz,xz,xy] (kbar):      -60.00       17.12       -1.69        3.34        0.03       -0.07
(Free)E + p*V (eV/cell)     -700.6636
Target enthalpy (eV/cell)     -703.7612

siesta: Stress tensor (static) (eV/Ang**3):
        -0.037447   -0.000042    0.000016
        -0.000042    0.010834    0.002105
         0.000016    0.002105   -0.001016

siesta: Pressure (static):         14.75550217  kBar

siesta: Stress tensor (total) (eV/Ang**3):
        -0.037447   -0.000041    0.000016
        -0.000041    0.010684    0.002086
         0.000016    0.002087   -0.001056

siesta: Pressure (total):         14.85717726  kBar

siesta: Temp_ion =      88.779 K

                     ====================================
                        Begin MD quenched step =      6
                     ====================================

outcoor: Atomic coordinates (scaled):                       
   -0.00001239    0.28840013    0.19005386   1       1  Si
   -0.00008598    0.85491528    0.02085587   1       2  Si
    0.50022090   -0.00527287    0.33046842   1       3  Si
    0.49988747    0.98127362    0.34641188   1       4  Si
    0.50000000    0.50000000    0.70710000   1       5  Si
    0.50000000    1.50000000    0.70710000   1       6  Si
    0.20200000    0.50000000    0.95470000   2       7  H
    0.79800000    0.50000000    0.95470000   2       8  H
    0.20200000    1.50000000    0.95470000   2       9  H
    0.79800000    1.50000000    0.95470000   2      10  H

superc: Internal auxiliary supercell:     5 x     3 x     1  =      15
superc: Number of atoms, orbitals, and projectors:    150   1470   1980

outcell: Unit cell vectors (Ang):
        3.818400    0.000000    0.000000
        0.000000    7.636800    0.000000
        0.000000    0.000000   11.455200

outcell: Cell vector modules (Ang)   :    3.818400    7.636800   11.455200
outcell: Cell angles (23,13,12) (deg):     90.0000     90.0000     90.0000
outcell: Cell volume (Ang**3)        :    334.0377
<dSpData1D:S at geom step 6
  <sparsity:sparsity for geom step 6
    nrows_g=98 nrows=13 sparsity=.5493 nnzs=5275, refcount: 7>
  <dData1D:(new from dSpData1D) n=5275, refcount: 1>
refcount: 1>
new_DM -- step:     6
Re-using DM from previous geometries...
Number of DMs in history: 1
 DM extrapolation coefficients: 
1   1.00000
New DM after history re-use:
<dSpData2D:SpM extrapolated using coords
  <sparsity:sparsity for geom step 6
    nrows_g=98 nrows=13 sparsity=.5493 nnzs=5275, refcount: 9>
  <dData2D:(temp array for extrapolation) n=5275 m=1, refcount: 1>
refcount: 1>
No. of atoms with KB's overlaping orbs in proc 0. Max # of overlaps:      14     136
New grid distribution:   1
           1       1:   12    1:   12    1:    9
           2       1:   12    1:   12   10:   18
           3       1:   12    1:   12   19:   27
           4       1:   12    1:   12   28:   36
           5       1:   12   13:   24    1:    9
           6       1:   12   13:   24   10:   18
           7       1:   12   13:   24   19:   27
           8       1:   12   13:   24   28:   36

InitMesh: MESH =    24 x    48 x    72 =       82944
InitMesh: (bp) =    12 x    24 x    36 =       10368
InitMesh: Mesh cutoff (required, used) =   100.000   109.185 Ry
ExtMesh (bp) on 0 =    56 x    56 x    53 =      166208
New grid distribution:   2
           1       1:   12   11:   24    8:   11
           2       1:   12   11:   24    5:    7
           3       1:   12    1:   10   12:   36
           4       1:   12    1:   10    8:   11
           5       1:   12   11:   24    1:    4
           6       1:   12    1:   10    1:    4
           7       1:   12   11:   24   12:   36
           8       1:   12    1:   10    5:    7
New grid distribution:   3
           1       1:   12   13:   24    1:    7
           2       1:   12    1:   12    8:   14
           3       1:   12    1:   12   15:   29
           4       1:   12    1:   12   30:   36
           5       1:   12    1:   12    1:    7
           6       1:   12   13:   24    8:   14
           7       1:   12   13:   24   15:   29
           8       1:   12   13:   24   30:   36
Setting up quadratic distribution...
ExtMesh (bp) on 0 =    56 x    58 x    48 =      155904
PhiOnMesh: Number of (b)points on node 0 =                  672
PhiOnMesh: nlist on node 0 =                47329

        iscf     Eharris(eV)        E_KS(eV)     FreeEng(eV)     dDmax    Ef(eV) dHmax(eV)
   scf:    1     -703.767624     -703.761345     -703.761345  0.007204 -4.222926  0.159272
   scf:    2     -703.615316     -703.716366     -703.716366  0.041785 -4.192951  0.742969
   scf:    3     -703.770629     -703.763252     -703.763252  0.035547 -4.219246  0.010853
   scf:    4     -703.763278     -703.763272     -703.763272  0.000131 -4.217865  0.003275
   scf:    5     -703.763273     -703.763273     -703.763273  0.000154 -4.217612  0.000988
   scf:    6     -703.763273     -703.763273     -703.763273  0.000009 -4.217588  0.000669

SCF Convergence by DM+H criterion
max |DM_out - DM_in|         :     0.0000091853
max |H_out - H_in|      (eV) :     0.0006691280
SCF cycle converged after 6 iterations

Using DM_out to compute the final energy and forces
No. of atoms with KB's overlaping orbs in proc 0. Max # of overlaps:      14     136

siesta: E_KS(eV) =             -703.7633

siesta: Atomic forces (eV/Ang):
     1    0.011959   -0.069449   -0.108379
     2   -0.000605    0.169539   -0.258017
     3   -0.012865   -0.094165    0.371015
     4    0.002384    0.294788    0.220065
     5    0.000320    0.162059    0.410696
     6    0.000482   -0.393791   -0.931267
     7   -0.302315   -0.136117    0.199997
     8    0.302000   -0.135207    0.200096
     9   -0.219612    0.088562   -0.040841
    10    0.219482    0.087216   -0.040620
----------------------------------------
   Tot    0.001229   -0.026565    0.022745
----------------------------------------
   Max    0.931267
   Res    0.259867    sqrt( Sum f_i^2 / 3N )
----------------------------------------
   Max    0.371015    constrained

Stress tensor Voigt[x,y,z,yz,xz,xy] (kbar):      -60.03       17.34       -1.67        3.28        0.03       -0.06
(Free)E + p*V (eV/cell)     -700.6802
Target enthalpy (eV/cell)     -703.7633

siesta: Stress tensor (static) (eV/Ang**3):
        -0.037470   -0.000040    0.000016
        -0.000040    0.010981    0.002066
         0.000016    0.002066   -0.000996

siesta: Pressure (static):         14.67874337  kBar

siesta: Stress tensor (total) (eV/Ang**3):
        -0.037470   -0.000039    0.000016
        -0.000039    0.010822    0.002045
         0.000016    0.002045   -0.001042

siesta: Pressure (total):         14.78802914  kBar

siesta: Temp_ion =      94.197 K

                     ====================================
                        Begin MD quenched step =      7
                     ====================================

outcoor: Atomic coordinates (scaled):                       
   -0.00000684    0.28738160    0.19002146   1       1  Si
   -0.00008618    0.85518576    0.02053775   1       2  Si
    0.50021536   -0.00529448    0.33064061   1       3  Si
    0.49988834    0.98173536    0.34695821   1       4  Si
    0.50000000    0.50000000    0.70710000   1       5  Si
    0.50000000    1.50000000    0.70710000   1       6  Si
    0.20200000    0.50000000    0.95470000   2       7  H
    0.79800000    0.50000000    0.95470000   2       8  H
    0.20200000    1.50000000    0.95470000   2       9  H
    0.79800000    1.50000000    0.95470000   2      10  H

superc: Internal auxiliary supercell:     5 x     3 x     1  =      15
superc: Number of atoms, orbitals, and projectors:    150   1470   1980

outcell: Unit cell vectors (Ang):
        3.818400    0.000000    0.000000
        0.000000    7.636800    0.000000
        0.000000    0.000000   11.455200

outcell: Cell vector modules (Ang)   :    3.818400    7.636800   11.455200
outcell: Cell angles (23,13,12) (deg):     90.0000     90.0000     90.0000
outcell: Cell volume (Ang**3)        :    334.0377
<dSpData1D:S at geom step 7
  <sparsity:sparsity for geom step 7
    nrows_g=98 nrows=13 sparsity=.5493 nnzs=5275, refcount: 7>
  <dData1D:(new from dSpData1D) n=5275, refcount: 1>
refcount: 1>
new_DM -- step:     7
Re-using DM from previous geometries...
Number of DMs in history: 1
 DM extrapolation coefficients: 
1   1.00000
New DM after history re-use:
<dSpData2D:SpM extrapolated using coords
  <sparsity:sparsity for geom step 7
    nrows_g=98 nrows=13 sparsity=.5493 nnzs=5275, refcount: 9>
  <dData2D:(temp array for extrapolation) n=5275 m=1, refcount: 1>
refcount: 1>
No. of atoms with KB's overlaping orbs in proc 0. Max # of overlaps:      14     136
New grid distribution:   1
           1       1:   12    1:   12    1:    9
           2       1:   12    1:   12   10:   18
           3       1:   12    1:   12   19:   27
           4       1:   12    1:   12   28:   36
           5       1:   12   13:   24    1:    9
           6       1:   12   13:   24   10:   18
           7       1:   12   13:   24   19:   27
           8       1:   12   13:   24   28:   36

InitMesh: MESH =    24 x    48 x    72 =       82944
InitMesh: (bp) =    12 x    24 x    36 =       10368
InitMesh: Mesh cutoff (required, used) =   100.000   109.185 Ry
ExtMesh (bp) on 0 =    56 x    56 x    53 =      166208
New grid distribution:   2
           1       1:   12   11:   24    8:   11
           2       1:   12   11:   24    5:    7
           3       1:   12    1:   10   12:   36
           4       1:   12    1:   10    8:   11
           5       1:   12   11:   24    1:    4
           6       1:   12    1:   10    1:    4
           7       1:   12   11:   24   12:   36
           8       1:   12    1:   10    5:    7
New grid distribution:   3
           1       1:   12   13:   24    1:    7
           2       1:   12    1:   12    8:   14
           3       1:   12    1:   12   15:   29
           4       1:   12    1:   12   30:   36
           5       1:   12    1:   12    1:    7
           6       1:   12   13:   24    8:   14
           7       1:   12   13:   24   15:   29
           8       1:   12   13:   24   30:   36
Setting up quadratic distribution...
ExtMesh (bp) on 0 =    56 x    58 x    48 =      155904
PhiOnMesh: Number of (b)points on node 0 =                  672
PhiOnMesh: nlist on node 0 =                47317

        iscf     Eharris(eV)        E_KS(eV)     FreeEng(eV)     dDmax    Ef(eV) dHmax(eV)
   scf:    1     -703.769134     -703.762960     -703.762960  0.007425 -4.225733  0.165288
   scf:    2     -703.604980     -703.714283     -703.714283  0.043505 -4.191520  0.773428
   scf:    3     -703.772957     -703.765011     -703.765011  0.037049 -4.219503  0.011413
   scf:    4     -703.765039     -703.765032     -703.765032  0.000134 -4.215464  0.003516
   scf:    5     -703.765034     -703.765034     -703.765034  0.000164 -4.217807  0.001024
   scf:    6     -703.765034     -703.765034     -703.765034  0.000010 -4.217780  0.000705

SCF Convergence by DM+H criterion
max |DM_out - DM_in|         :     0.0000097450
max |H_out - H_in|      (eV) :     0.0007051181
SCF cycle converged after 6 iterations

Using DM_out to compute the final energy and forces
No. of atoms with KB's overlaping orbs in proc 0. Max # of overlaps:      14     136

siesta: E_KS(eV) =             -703.7650

siesta: Atomic forces (eV/Ang):
     1    0.011457    0.004999   -0.127424
     2   -0.000633    0.129196   -0.227803
     3   -0.011736   -0.116393    0.378871
     4    0.002657    0.266021    0.187490
     5    0.000311    0.168984    0.408522
     6    0.000451   -0.386348   -0.918404
     7   -0.302819   -0.138607    0.200572
     8    0.302515   -0.137723    0.200664
     9   -0.219457    0.089142   -0.040141
    10    0.219336    0.087832   -0.039933
----------------------------------------
   Tot    0.002082   -0.032897    0.022415
----------------------------------------
   Max    0.918404
   Res    0.255169    sqrt( Sum f_i^2 / 3N )
----------------------------------------
   Max    0.378871    constrained

Stress tensor Voigt[x,y,z,yz,xz,xy] (kbar):      -60.04       17.66       -1.64        3.17        0.03       -0.09
(Free)E + p*V (eV/cell)     -700.7058
Target enthalpy (eV/cell)     -703.7650

siesta: Stress tensor (static) (eV/Ang**3):
        -0.037472   -0.000054    0.000019
        -0.000054    0.011187    0.001999
         0.000019    0.001999   -0.000973

siesta: Pressure (static):         14.55761491  kBar

siesta: Stress tensor (total) (eV/Ang**3):
        -0.037472   -0.000053    0.000019
        -0.000053    0.011021    0.001976
         0.000019    0.001976   -0.001024

siesta: Pressure (total):         14.67356971  kBar

siesta: Temp_ion =      41.575 K

                     ====================================
                        Begin MD quenched step =      8
                     ====================================

outcoor: Atomic coordinates (scaled):                       
   -0.00000026    0.28738183    0.18997768   1       1  Si
   -0.00008643    0.85546778    0.02019929   1       2  Si
    0.50020878   -0.00532649    0.33084663   1       3  Si
    0.49988944    0.98222087    0.34752128   1       4  Si
    0.50000000    0.50000000    0.70710000   1       5  Si
    0.50000000    1.50000000    0.70710000   1       6  Si
    0.20200000    0.50000000    0.95470000   2       7  H
    0.79800000    0.50000000    0.95470000   2       8  H
    0.20200000    1.50000000    0.95470000   2       9  H
    0.79800000    1.50000000    0.95470000   2      10  H

superc: Internal auxiliary supercell:     5 x     3 x     1  =      15
superc: Number of atoms, orbitals, and projectors:    150   1470   1980

outcell: Unit cell vectors (Ang):
        3.818400    0.000000    0.000000
        0.000000    7.636800    0.000000
        0.000000    0.000000   11.455200

outcell: Cell vector modules (Ang)   :    3.818400    7.636800   11.455200
outcell: Cell angles (23,13,12) (deg):     90.0000     90.0000     90.0000
outcell: Cell volume (Ang**3)        :    334.0377
<dSpData1D:S at geom step 8
  <sparsity:sparsity for geom step 8
    nrows_g=98 nrows=13 sparsity=.5493 nnzs=5275, refcount: 7>
  <dData1D:(new from dSpData1D) n=5275, refcount: 1>
refcount: 1>
new_DM -- step:     8
Re-using DM from previous geometries...
Number of DMs in history: 1
 DM extrapolation coefficients: 
1   1.00000
New DM after history re-use:
<dSpData2D:SpM extrapolated using coords
  <sparsity:sparsity for geom step 8
    nrows_g=98 nrows=13 sparsity=.5493 nnzs=5275, refcount: 9>
  <dData2D:(temp array for extrapolation) n=5275 m=1, refcount: 1>
refcount: 1>
No. of atoms with KB's overlaping orbs in proc 0. Max # of overlaps:      14     136
New grid distribution:   1
           1       1:   12    1:   12    1:    9
           2       1:   12    1:   12   10:   18
           3       1:   12    1:   12   19:   27
           4       1:   12    1:   12   28:   36
           5       1:   12   13:   24    1:    9
           6       1:   12   13:   24   10:   18
           7       1:   12   13:   24   19:   27
           8       1:   12   13:   24   28:   36

InitMesh: MESH =    24 x    48 x    72 =       82944
InitMesh: (bp) =    12 x    24 x    36 =       10368
InitMesh: Mesh cutoff (required, used) =   100.000   109.185 Ry
ExtMesh (bp) on 0 =    56 x    56 x    53 =      166208
New grid distribution:   2
           1       1:   12   11:   24    8:   11
           2       1:   12   11:   24    5:    7
           3       1:   12    1:   10   12:   36
           4       1:   12    1:   10    8:   11
           5       1:   12   11:   24    1:    4
           6       1:   12    1:   10    1:    4
           7       1:   12   11:   24   12:   36
           8       1:   12    1:   10    5:    7
New grid distribution:   3
           1       1:   12   13:   24    1:    7
           2       1:   12    1:   12    8:   14
           3       1:   12    1:   12   15:   29
           4       1:   12    1:   12   30:   36
           5       1:   12    1:   12    1:    7
           6       1:   12   13:   24    8:   14
           7       1:   12   13:   24   15:   29
           8       1:   12   13:   24   30:   36
Setting up quadratic distribution...
ExtMesh (bp) on 0 =    56 x    58 x    48 =      155904
PhiOnMesh: Number of (b)points on node 0 =                  672
PhiOnMesh: nlist on node 0 =                47308

        iscf     Eharris(eV)        E_KS(eV)     FreeEng(eV)     dDmax    Ef(eV) dHmax(eV)
   scf:    1     -703.770325     -703.765880     -703.765880  0.004070 -4.224960  0.099046
   scf:    2     -703.714074     -703.749993     -703.749993  0.023539 -4.199185  0.453365
   scf:    3     -703.769393     -703.766615     -703.766615  0.019867 -4.220087  0.008982
   scf:    4     -703.766624     -703.766622     -703.766622  0.000177 -4.219098  0.002273
   scf:    5     -703.766622     -703.766622     -703.766622  0.000049 -4.218972  0.001143
   scf:    6     -703.766622     -703.766622     -703.766622  0.000013 -4.218925  0.000711

SCF Convergence by DM+H criterion
max |DM_out - DM_in|         :     0.0000129973
max |H_out - H_in|      (eV) :     0.0007106957
SCF cycle converged after 6 iterations

Using DM_out to compute the final energy and forces
No. of atoms with KB's overlaping orbs in proc 0. Max # of overlaps:      14     136

siesta: E_KS(eV) =             -703.7666

siesta: Atomic forces (eV/Ang):
     1    0.010765    0.016397   -0.127667
     2   -0.001018    0.126258   -0.206100
     3   -0.011614   -0.112965    0.372990
     4    0.002298    0.238613    0.158446
     5    0.000297    0.175153    0.410538
     6    0.000417   -0.378091   -0.904474
     7   -0.303175   -0.139997    0.201363
     8    0.302884   -0.139146    0.201451
     9   -0.219208    0.089710   -0.039723
    10    0.219095    0.088443   -0.039531
----------------------------------------
   Tot    0.000742   -0.035624    0.027292
----------------------------------------
   Max    0.904474
   Res    0.250880    sqrt( Sum f_i^2 / 3N )
----------------------------------------
   Max    0.372990    constrained

Stress tensor Voigt[x,y,z,yz,xz,xy] (kbar):      -59.75       17.93       -1.62        3.12        0.02       -0.06
(Free)E + p*V (eV/cell)     -700.7472
Target enthalpy (eV/cell)     -703.7666

siesta: Stress tensor (static) (eV/Ang**3):
        -0.037294   -0.000038    0.000012
        -0.000038    0.011228    0.001966
         0.000012    0.001966   -0.000956

siesta: Pressure (static):         14.43146296  kBar

siesta: Stress tensor (total) (eV/Ang**3):
        -0.037294   -0.000039    0.000012
        -0.000039    0.011190    0.001945
         0.000012    0.001944   -0.001013

siesta: Pressure (total):         14.48264074  kBar

siesta: Temp_ion =      45.669 K

                     ====================================
                        Begin MD quenched step =      9
                     ====================================

outcoor: Atomic coordinates (scaled):                       
    0.00000728    0.28738351    0.18992249   1       1  Si
   -0.00008677    0.85576108    0.01984242   1       2  Si
    0.50020116   -0.00536859    0.33108597   1       3  Si
    0.49989075    0.98272769    0.34809849   1       4  Si
    0.50000000    0.50000000    0.70710000   1       5  Si
    0.50000000    1.50000000    0.70710000   1       6  Si
    0.20200000    0.50000000    0.95470000   2       7  H
    0.79800000    0.50000000    0.95470000   2       8  H
    0.20200000    1.50000000    0.95470000   2       9  H
    0.79800000    1.50000000    0.95470000   2      10  H

superc: Internal auxiliary supercell:     5 x     3 x     1  =      15
superc: Number of atoms, orbitals, and projectors:    150   1470   1980

outcell: Unit cell vectors (Ang):
        3.818400    0.000000    0.000000
        0.000000    7.636800    0.000000
        0.000000    0.000000   11.455200

outcell: Cell vector modules (Ang)   :    3.818400    7.636800   11.455200
outcell: Cell angles (23,13,12) (deg):     90.0000     90.0000     90.0000
outcell: Cell volume (Ang**3)        :    334.0377
<dSpData1D:S at geom step 9
  <sparsity:sparsity for geom step 9
    nrows_g=98 nrows=13 sparsity=.5493 nnzs=5275, refcount: 7>
  <dData1D:(new from dSpData1D) n=5275, refcount: 1>
refcount: 1>
new_DM -- step:     9
Re-using DM from previous geometries...
Number of DMs in history: 1
 DM extrapolation coefficients: 
1   1.00000
New DM after history re-use:
<dSpData2D:SpM extrapolated using coords
  <sparsity:sparsity for geom step 9
    nrows_g=98 nrows=13 sparsity=.5493 nnzs=5275, refcount: 9>
  <dData2D:(temp array for extrapolation) n=5275 m=1, refcount: 1>
refcount: 1>
No. of atoms with KB's overlaping orbs in proc 0. Max # of overlaps:      14     136
New grid distribution:   1
           1       1:   12    1:   12    1:    9
           2       1:   12    1:   12   10:   18
           3       1:   12    1:   12   19:   27
           4       1:   12    1:   12   28:   36
           5       1:   12   13:   24    1:    9
           6       1:   12   13:   24   10:   18
           7       1:   12   13:   24   19:   27
           8       1:   12   13:   24   28:   36

InitMesh: MESH =    24 x    48 x    72 =       82944
InitMesh: (bp) =    12 x    24 x    36 =       10368
InitMesh: Mesh cutoff (required, used) =   100.000   109.185 Ry
ExtMesh (bp) on 0 =    56 x    56 x    53 =      166208
New grid distribution:   2
           1       1:   12   11:   24    8:   11
           2       1:   12   11:   24    5:    7
           3       1:   12    1:   10   12:   36
           4       1:   12    1:   10    8:   11
           5       1:   12   11:   24    1:    4
           6       1:   12    1:   10    1:    4
           7       1:   12   11:   24   12:   36
           8       1:   12    1:   10    5:    7
New grid distribution:   3
           1       1:   12   13:   24    1:    7
           2       1:   12    1:   12    8:   14
           3       1:   12    1:   12   15:   29
           4       1:   12    1:   12   30:   36
           5       1:   12    1:   12    1:    7
           6       1:   12   13:   24    8:   14
           7       1:   12   13:   24   15:   29
           8       1:   12   13:   24   30:   36
Setting up quadratic distribution...
ExtMesh (bp) on 0 =    56 x    58 x    48 =      155904
PhiOnMesh: Number of (b)points on node 0 =                  672
PhiOnMesh: nlist on node 0 =                47327

        iscf     Eharris(eV)        E_KS(eV)     FreeEng(eV)     dDmax    Ef(eV) dHmax(eV)
   scf:    1     -703.771902     -703.767363     -703.767363  0.004139 -4.226134  0.103093
   scf:    2     -703.712169     -703.750443     -703.750443  0.024143 -4.200055  0.469716
   scf:    3     -703.771118     -703.768153     -703.768153  0.020381 -4.218530  0.009054
   scf:    4     -703.768163     -703.768160     -703.768160  0.000186 -4.220100  0.002396
   scf:    5     -703.768161     -703.768160     -703.768160  0.000052 -4.219967  0.001203
   scf:    6     -703.768161     -703.768161     -703.768161  0.000014 -4.219919  0.000720

SCF Convergence by DM+H criterion
max |DM_out - DM_in|         :     0.0000142850
max |H_out - H_in|      (eV) :     0.0007204826
SCF cycle converged after 6 iterations

Using DM_out to compute the final energy and forces
No. of atoms with KB's overlaping orbs in proc 0. Max # of overlaps:      14     136

siesta: E_KS(eV) =             -703.7682

siesta: Atomic forces (eV/Ang):
     1    0.009983    0.026957   -0.127238
     2   -0.000870    0.129008   -0.187450
     3   -0.011130   -0.106838    0.364591
     4    0.002895    0.207928    0.125367
     5    0.000279    0.181866    0.412787
     6    0.000378   -0.369721   -0.889722
     7   -0.303458   -0.141325    0.202160
     8    0.303182   -0.140510    0.202242
     9   -0.219086    0.090200   -0.039063
    10    0.218981    0.088983   -0.038888
----------------------------------------
   Tot    0.001155   -0.033453    0.024786
----------------------------------------
   Max    0.889722
   Res    0.246612    sqrt( Sum f_i^2 / 3N )
----------------------------------------
   Max    0.364591    constrained

Stress tensor Voigt[x,y,z,yz,xz,xy] (kbar):      -59.48       17.90       -1.68        3.07        0.02       -0.06
(Free)E + p*V (eV/cell)     -700.7618
Target enthalpy (eV/cell)     -703.7682

siesta: Stress tensor (static) (eV/Ang**3):
        -0.037126   -0.000036    0.000010
        -0.000036    0.011214    0.001939
         0.000010    0.001938   -0.000983

siesta: Pressure (static):         14.36357992  kBar

siesta: Stress tensor (total) (eV/Ang**3):
        -0.037126   -0.000036    0.000010
        -0.000036    0.011172    0.001916
         0.000010    0.001916   -0.001046

siesta: Pressure (total):         14.41979760  kBar

siesta: Temp_ion =      49.632 K

                     ====================================
                        Begin MD quenched step =     10
                     ====================================

outcoor: Atomic coordinates (scaled):                       
    0.00001571    0.28738761    0.18985595   1       1  Si
   -0.00008719    0.85606591    0.01946881   1       2  Si
    0.50019254   -0.00542023    0.33135786   1       3  Si
    0.49989232    0.98325307    0.34868691   1       4  Si
    0.50000000    0.50000000    0.70710000   1       5  Si
    0.50000000    1.50000000    0.70710000   1       6  Si
    0.20200000    0.50000000    0.95470000   2       7  H
    0.79800000    0.50000000    0.95470000   2       8  H
    0.20200000    1.50000000    0.95470000   2       9  H
    0.79800000    1.50000000    0.95470000   2      10  H

superc: Internal auxiliary supercell:     5 x     3 x     1  =      15
superc: Number of atoms, orbitals, and projectors:    150   1470   1980

outcell: Unit cell vectors (Ang):
        3.818400    0.000000    0.000000
        0.000000    7.636800    0.000000
        0.000000    0.000000   11.455200

outcell: Cell vector modules (Ang)   :    3.818400    7.636800   11.455200
outcell: Cell angles (23,13,12) (deg):     90.0000     90.0000     90.0000
outcell: Cell volume (Ang**3)        :    334.0377
<dSpData1D:S at geom step 10
  <sparsity:sparsity for geom step 10
    nrows_g=98 nrows=13 sparsity=.5493 nnzs=5275, refcount: 7>
  <dData1D:(new from dSpData1D) n=5275, refcount: 1>
refcount: 1>
new_DM -- step:    10
Re-using DM from previous geometries...
Number of DMs in history: 1
 DM extrapolation coefficients: 
1   1.00000
New DM after history re-use:
<dSpData2D:SpM extrapolated using coords
  <sparsity:sparsity for geom step 10
    nrows_g=98 nrows=13 sparsity=.5493 nnzs=5275, refcount: 9>
  <dData2D:(temp array for extrapolation) n=5275 m=1, refcount: 1>
refcount: 1>
No. of atoms with KB's overlaping orbs in proc 0. Max # of overlaps:      14     136
New grid distribution:   1
           1       1:   12    1:   12    1:    9
           2       1:   12    1:   12   10:   18
           3       1:   12    1:   12   19:   27
           4       1:   12    1:   12   28:   36
           5       1:   12   13:   24    1:    9
           6       1:   12   13:   24   10:   18
           7       1:   12   13:   24   19:   27
           8       1:   12   13:   24   28:   36

InitMesh: MESH =    24 x    48 x    72 =       82944
InitMesh: (bp) =    12 x    24 x    36 =       10368
InitMesh: Mesh cutoff (required, used) =   100.000   109.185 Ry
ExtMesh (bp) on 0 =    56 x    56 x    53 =      166208
New grid distribution:   2
           1       1:   12   11:   24    8:   11
           2       1:   12   11:   24    5:    7
           3       1:   12    1:   10   12:   36
           4       1:   12    1:   10    8:   11
           5       1:   12   11:   24    1:    4
           6       1:   12    1:   10    1:    4
           7       1:   12   11:   24   12:   36
           8       1:   12    1:   10    5:    7
New grid distribution:   3
           1       1:   12   13:   24    1:    7
           2       1:   12    1:   12    8:   14
           3       1:   12    1:   12   15:   29
           4       1:   12    1:   12   30:   36
           5       1:   12    1:   12    1:    7
           6       1:   12   13:   24    8:   14
           7       1:   12   13:   24   15:   29
           8       1:   12   13:   24   30:   36
[...]
Re-using DM from previous geometries...
Number of DMs in history: 1
 DM extrapolation coefficients: 
1   1.00000
New DM after history re-use:
<dSpData2D:SpM extrapolated using coords
  <sparsity:sparsity for geom step 45
    nrows_g=98 nrows=13 sparsity=.5493 nnzs=5275, refcount: 9>
  <dData2D:(temp array for extrapolation) n=5275 m=1, refcount: 1>
refcount: 1>
No. of atoms with KB's overlaping orbs in proc 0. Max # of overlaps:      14     136
New grid distribution:   1
           1       1:   12    1:   12    1:    9
           2       1:   12    1:   12   10:   18
           3       1:   12    1:   12   19:   27
           4       1:   12    1:   12   28:   36
           5       1:   12   13:   24    1:    9
           6       1:   12   13:   24   10:   18
           7       1:   12   13:   24   19:   27
           8       1:   12   13:   24   28:   36

InitMesh: MESH =    24 x    48 x    72 =       82944
InitMesh: (bp) =    12 x    24 x    36 =       10368
InitMesh: Mesh cutoff (required, used) =   100.000   109.185 Ry
ExtMesh (bp) on 0 =    56 x    56 x    53 =      166208
New grid distribution:   2
           1       1:   12   11:   24    8:   11
           2       1:   12   11:   24    5:    7
           3       1:   12    1:   10   12:   36
           4       1:   12    1:   10    8:   11
           5       1:   12   11:   24    1:    4
           6       1:   12    1:   10    1:    4
           7       1:   12   11:   24   12:   36
           8       1:   12    1:   10    5:    7
New grid distribution:   3
           1       1:   12   13:   24    8:   14
           2       1:   12    1:   12    8:   14
           3       1:   12    1:   11   15:   29
           4       1:   12   13:   24    1:    7
           5       1:   12    1:   12    1:    7
           6       1:   12    1:   11   30:   36
           7       1:   12   12:   24   15:   29
           8       1:   12   12:   24   30:   36
Setting up quadratic distribution...
ExtMesh (bp) on 0 =    56 x    58 x    48 =      155904
PhiOnMesh: Number of (b)points on node 0 =                  672
PhiOnMesh: nlist on node 0 =                47320

        iscf     Eharris(eV)        E_KS(eV)     FreeEng(eV)     dDmax    Ef(eV) dHmax(eV)
   scf:    1     -703.788532     -703.786527     -703.786527  0.000481 -4.241238  0.013909
   scf:    2     -703.785552     -703.786232     -703.786232  0.002633 -4.243201  0.061533
   scf:    3     -703.786601     -703.786544     -703.786544  0.002196 -4.241237  0.001349
   scf:    4     -703.786544     -703.786544     -703.786544  0.000047 -4.241351  0.000387

SCF Convergence by DM+H criterion
max |DM_out - DM_in|         :     0.0000471560
max |H_out - H_in|      (eV) :     0.0003874112
SCF cycle converged after 4 iterations

Using DM_out to compute the final energy and forces
No. of atoms with KB's overlaping orbs in proc 0. Max # of overlaps:      14     136

siesta: E_KS(eV) =             -703.7865

siesta: Atomic forces (eV/Ang):
     1   -0.000010    0.002220   -0.017448
     2    0.000885    0.047772   -0.040799
     3   -0.000365    0.071965   -0.002570
     4    0.000909   -0.009875   -0.004537
     5    0.000051    0.395262    0.491416
     6   -0.000059   -0.430006   -0.756227
     7   -0.303076   -0.135140    0.204890
     8    0.303000   -0.134906    0.204959
     9   -0.217884    0.083759   -0.030197
    10    0.217876    0.083314   -0.030200
----------------------------------------
   Tot    0.001328   -0.025634    0.019287
----------------------------------------
   Max    0.756227
   Res    0.229413    sqrt( Sum f_i^2 / 3N )
----------------------------------------
   Max    0.071965    constrained

Stress tensor Voigt[x,y,z,yz,xz,xy] (kbar):      -54.44       19.18       -2.22        1.65        0.01       -0.01
(Free)E + p*V (eV/cell)     -701.1819
Target enthalpy (eV/cell)     -703.7865

siesta: Stress tensor (static) (eV/Ang**3):
        -0.033977   -0.000006    0.000005
        -0.000006    0.011980    0.001032
         0.000005    0.001032   -0.001373

siesta: Pressure (static):         12.48129012  kBar

siesta: Stress tensor (total) (eV/Ang**3):
        -0.033977   -0.000006    0.000005
        -0.000006    0.011973    0.001031
         0.000005    0.001031   -0.001387

siesta: Pressure (total):         12.49281832  kBar

siesta: Temp_ion =       9.652 K

                     ====================================
                        Begin MD quenched step =     46
                     ====================================

outcoor: Atomic coordinates (scaled):                       
    0.00008708    0.28964490    0.18172208   1       1  Si
   -0.00006475    0.86286216    0.00963030   1       2  Si
    0.50008558   -0.00331209    0.34227225   1       3  Si
    0.49993538    0.98567197    0.34843670   1       4  Si
    0.50000000    0.50000000    0.70710000   1       5  Si
    0.50000000    1.50000000    0.70710000   1       6  Si
    0.20200000    0.50000000    0.95470000   2       7  H
    0.79800000    0.50000000    0.95470000   2       8  H
    0.20200000    1.50000000    0.95470000   2       9  H
    0.79800000    1.50000000    0.95470000   2      10  H

superc: Internal auxiliary supercell:     5 x     3 x     1  =      15
superc: Number of atoms, orbitals, and projectors:    150   1470   1980

outcell: Unit cell vectors (Ang):
        3.818400    0.000000    0.000000
        0.000000    7.636800    0.000000
        0.000000    0.000000   11.455200

outcell: Cell vector modules (Ang)   :    3.818400    7.636800   11.455200
outcell: Cell angles (23,13,12) (deg):     90.0000     90.0000     90.0000
outcell: Cell volume (Ang**3)        :    334.0377
<dSpData1D:S at geom step 46
  <sparsity:sparsity for geom step 46
    nrows_g=98 nrows=13 sparsity=.5493 nnzs=5275, refcount: 7>
  <dData1D:(new from dSpData1D) n=5275, refcount: 1>
refcount: 1>
new_DM -- step:    46
Re-using DM from previous geometries...
Number of DMs in history: 1
 DM extrapolation coefficients: 
1   1.00000
New DM after history re-use:
<dSpData2D:SpM extrapolated using coords
  <sparsity:sparsity for geom step 46
    nrows_g=98 nrows=13 sparsity=.5493 nnzs=5275, refcount: 9>
  <dData2D:(temp array for extrapolation) n=5275 m=1, refcount: 1>
refcount: 1>
No. of atoms with KB's overlaping orbs in proc 0. Max # of overlaps:      14     136
New grid distribution:   1
           1       1:   12    1:   12    1:    9
           2       1:   12    1:   12   10:   18
           3       1:   12    1:   12   19:   27
           4       1:   12    1:   12   28:   36
           5       1:   12   13:   24    1:    9
           6       1:   12   13:   24   10:   18
           7       1:   12   13:   24   19:   27
           8       1:   12   13:   24   28:   36

InitMesh: MESH =    24 x    48 x    72 =       82944
InitMesh: (bp) =    12 x    24 x    36 =       10368
InitMesh: Mesh cutoff (required, used) =   100.000   109.185 Ry
ExtMesh (bp) on 0 =    56 x    56 x    53 =      166208
New grid distribution:   2
           1       1:   12   11:   24    8:   11
           2       1:   12   11:   24    5:    7
           3       1:   12    1:   10   12:   36
           4       1:   12    1:   10    8:   11
           5       1:   12   11:   24    1:    4
           6       1:   12    1:   10    1:    4
           7       1:   12   11:   24   12:   36
           8       1:   12    1:   10    5:    7
New grid distribution:   3
           1       1:   12   13:   24    8:   14
           2       1:   12    1:   12    8:   14
           3       1:   12    1:   11   15:   29
           4       1:   12   13:   24    1:    7
           5       1:   12    1:   12    1:    7
           6       1:   12    1:   11   30:   36
           7       1:   12   12:   24   15:   29
           8       1:   12   12:   24   30:   36
Setting up quadratic distribution...
ExtMesh (bp) on 0 =    56 x    58 x    48 =      155904
PhiOnMesh: Number of (b)points on node 0 =                  672
PhiOnMesh: nlist on node 0 =                47318

        iscf     Eharris(eV)        E_KS(eV)     FreeEng(eV)     dDmax    Ef(eV) dHmax(eV)
   scf:    1     -703.788620     -703.786626     -703.786626  0.000477 -4.240588  0.014008
   scf:    2     -703.785647     -703.786329     -703.786329  0.002592 -4.245304  0.061662
   scf:    3     -703.786701     -703.786643     -703.786643  0.002161 -4.240615  0.001357
   scf:    4     -703.786643     -703.786643     -703.786643  0.000048 -4.240731  0.000392

SCF Convergence by DM+H criterion
max |DM_out - DM_in|         :     0.0000479830
max |H_out - H_in|      (eV) :     0.0003921267
SCF cycle converged after 4 iterations

Using DM_out to compute the final energy and forces
No. of atoms with KB's overlaping orbs in proc 0. Max # of overlaps:      14     136

siesta: E_KS(eV) =             -703.7866

siesta: Atomic forces (eV/Ang):
     1   -0.000947    0.005428   -0.015359
     2    0.001119    0.046089   -0.043595
     3    0.000195    0.061114   -0.000506
     4    0.000948   -0.006548    0.001747
     5    0.000054    0.398378    0.492078
     6   -0.000053   -0.427785   -0.762752
     7   -0.302829   -0.134950    0.204469
     8    0.302753   -0.134724    0.204542
     9   -0.217864    0.083759   -0.030366
    10    0.217856    0.083321   -0.030366
----------------------------------------
   Tot    0.001232   -0.025917    0.019890
----------------------------------------
   Max    0.762752
   Res    0.230059    sqrt( Sum f_i^2 / 3N )
----------------------------------------
   Max    0.061114    constrained

Stress tensor Voigt[x,y,z,yz,xz,xy] (kbar):      -54.47       19.22       -2.18        1.61        0.00       -0.01
(Free)E + p*V (eV/cell)     -701.1853
Target enthalpy (eV/cell)     -703.7866

siesta: Stress tensor (static) (eV/Ang**3):
        -0.033998   -0.000005    0.000003
        -0.000005    0.012002    0.001007
         0.000003    0.001007   -0.001345

siesta: Pressure (static):         12.46526721  kBar

siesta: Stress tensor (total) (eV/Ang**3):
        -0.033998   -0.000005    0.000003
        -0.000005    0.011994    0.001006
         0.000003    0.001006   -0.001359

siesta: Pressure (total):         12.47714866  kBar

siesta: Temp_ion =       9.042 K

                     ====================================
                        Begin MD quenched step =     47
                     ====================================

outcoor: Atomic coordinates (scaled):                       
    0.00008700    0.28964548    0.18141258   1       1  Si
   -0.00006300    0.86293691    0.00959834   1       2  Si
    0.50008559   -0.00306910    0.34225681   1       3  Si
    0.49993689    0.98560457    0.34843678   1       4  Si
    0.50000000    0.50000000    0.70710000   1       5  Si
    0.50000000    1.50000000    0.70710000   1       6  Si
    0.20200000    0.50000000    0.95470000   2       7  H
    0.79800000    0.50000000    0.95470000   2       8  H
    0.20200000    1.50000000    0.95470000   2       9  H
    0.79800000    1.50000000    0.95470000   2      10  H

superc: Internal auxiliary supercell:     5 x     3 x     1  =      15
superc: Number of atoms, orbitals, and projectors:    150   1470   1980

outcell: Unit cell vectors (Ang):
        3.818400    0.000000    0.000000
        0.000000    7.636800    0.000000
        0.000000    0.000000   11.455200

outcell: Cell vector modules (Ang)   :    3.818400    7.636800   11.455200
outcell: Cell angles (23,13,12) (deg):     90.0000     90.0000     90.0000
outcell: Cell volume (Ang**3)        :    334.0377
<dSpData1D:S at geom step 47
  <sparsity:sparsity for geom step 47
    nrows_g=98 nrows=13 sparsity=.5493 nnzs=5275, refcount: 7>
  <dData1D:(new from dSpData1D) n=5275, refcount: 1>
refcount: 1>
new_DM -- step:    47
Re-using DM from previous geometries...
Number of DMs in history: 1
 DM extrapolation coefficients: 
1   1.00000
New DM after history re-use:
<dSpData2D:SpM extrapolated using coords
  <sparsity:sparsity for geom step 47
    nrows_g=98 nrows=13 sparsity=.5493 nnzs=5275, refcount: 9>
  <dData2D:(temp array for extrapolation) n=5275 m=1, refcount: 1>
refcount: 1>
No. of atoms with KB's overlaping orbs in proc 0. Max # of overlaps:      14     136
New grid distribution:   1
           1       1:   12    1:   12    1:    9
           2       1:   12    1:   12   10:   18
           3       1:   12    1:   12   19:   27
           4       1:   12    1:   12   28:   36
           5       1:   12   13:   24    1:    9
           6       1:   12   13:   24   10:   18
           7       1:   12   13:   24   19:   27
           8       1:   12   13:   24   28:   36

InitMesh: MESH =    24 x    48 x    72 =       82944
InitMesh: (bp) =    12 x    24 x    36 =       10368
InitMesh: Mesh cutoff (required, used) =   100.000   109.185 Ry
ExtMesh (bp) on 0 =    56 x    56 x    53 =      166208
New grid distribution:   2
           1       1:   12   11:   24    8:   11
           2       1:   12   11:   24    5:    7
           3       1:   12    1:   10   12:   36
           4       1:   12    1:   10    8:   11
           5       1:   12   11:   24    1:    4
           6       1:   12    1:   10    1:    4
           7       1:   12   11:   24   12:   36
           8       1:   12    1:   10    5:    7
New grid distribution:   3
           1       1:   12   13:   24    8:   14
           2       1:   12    1:   12    8:   14
           3       1:   12    1:   11   15:   29
           4       1:   12   13:   24    1:    7
           5       1:   12    1:   12    1:    7
           6       1:   12    1:   11   30:   36
           7       1:   12   12:   24   15:   29
           8       1:   12   12:   24   30:   36
Setting up quadratic distribution...
ExtMesh (bp) on 0 =    56 x    58 x    48 =      155904
PhiOnMesh: Number of (b)points on node 0 =                  672
PhiOnMesh: nlist on node 0 =                47317

        iscf     Eharris(eV)        E_KS(eV)     FreeEng(eV)     dDmax    Ef(eV) dHmax(eV)
   scf:    1     -703.788659     -703.786727     -703.786727  0.000440 -4.239824  0.007666
   scf:    2     -703.786533     -703.786670     -703.786670  0.000362 -4.244195  0.023915
   scf:    3     -703.786746     -703.786733     -703.786733  0.000279 -4.240220  0.000546
   scf:    4     -703.786733     -703.786733     -703.786733  0.000012 -4.240218  0.000191

SCF Convergence by DM+H criterion
max |DM_out - DM_in|         :     0.0000118661
max |H_out - H_in|      (eV) :     0.0001910426
SCF cycle converged after 4 iterations

Using DM_out to compute the final energy and forces
No. of atoms with KB's overlaping orbs in proc 0. Max # of overlaps:      14     136

siesta: E_KS(eV) =             -703.7867

siesta: Atomic forces (eV/Ang):
     1   -0.001272    0.008464   -0.014329
     2    0.000858    0.045776   -0.044125
     3    0.000150    0.052139    0.001651
     4    0.000810   -0.002831    0.001825
     5    0.000061    0.399752    0.494812
     6   -0.000044   -0.424372   -0.767965
     7   -0.302607   -0.134996    0.204239
     8    0.302530   -0.134775    0.204317
     9   -0.217798    0.083904   -0.030481
    10    0.217788    0.083472   -0.030478
----------------------------------------
   Tot    0.000476   -0.023467    0.019466
----------------------------------------
   Max    0.767965
   Res    0.230596    sqrt( Sum f_i^2 / 3N )
----------------------------------------
   Max    0.052139    constrained

Stress tensor Voigt[x,y,z,yz,xz,xy] (kbar):      -54.49       19.23       -2.15        1.60        0.00        0.00
(Free)E + p*V (eV/cell)     -701.1864
Target enthalpy (eV/cell)     -703.7867

siesta: Stress tensor (static) (eV/Ang**3):
        -0.034012    0.000001    0.000003
         0.000001    0.012011    0.001000
         0.000003    0.001000   -0.001332

siesta: Pressure (static):         12.46104669  kBar

siesta: Stress tensor (total) (eV/Ang**3):
        -0.034012    0.000001    0.000003
         0.000001    0.012003    0.001001
         0.000003    0.001001   -0.001344

siesta: Pressure (total):         12.47217788  kBar

outcoor: Relaxed atomic coordinates (scaled):               
    0.00008700    0.28964548    0.18141258   1       1  Si
   -0.00006300    0.86293691    0.00959834   1       2  Si
    0.50008559   -0.00306910    0.34225681   1       3  Si
    0.49993689    0.98560457    0.34843678   1       4  Si
    0.50000000    0.50000000    0.70710000   1       5  Si
    0.50000000    1.50000000    0.70710000   1       6  Si
    0.20200000    0.50000000    0.95470000   2       7  H
    0.79800000    0.50000000    0.95470000   2       8  H
    0.20200000    1.50000000    0.95470000   2       9  H
    0.79800000    1.50000000    0.95470000   2      10  H

coxmol: Writing XMOL coordinates into file si2x1h-quench.xyz                                                   

siesta: Program's energy decomposition (eV):
siesta: Ebs     =      -267.432950
siesta: Eions   =      1221.235657
siesta: Ena     =       369.737247
siesta: Ekin    =       304.560925
siesta: Enl     =        70.106802
siesta: Eso     =         0.000000
siesta: Edftu   =         0.000000
siesta: DEna    =         1.144523
siesta: DUscf   =         2.201926
siesta: DUext   =         0.000000
siesta: Exc     =      -230.302499
siesta: eta*DQ  =         0.000000
siesta: Emadel  =         0.000000
siesta: Emeta   =         0.000000
siesta: Emolmec =         0.000000
siesta: Ekinion =         0.003506
siesta: Eharris =      -703.783226
siesta: Etot    =      -703.783226
siesta: FreeEng =      -703.783226

siesta: Final energy (eV):
siesta:  Band Struct. =    -267.432950
siesta:       Kinetic =     304.560925
siesta:       Hartree =     888.426794
siesta:       Edftu   =       0.000000
siesta:       Eso     =       0.000000
siesta:    Ext. field =       0.000000
siesta:   Exch.-corr. =    -230.302499
siesta:  Ion-electron =   -2048.500510
siesta:       Ion-ion =     382.028557
siesta:       Ekinion =       0.003506
siesta:         Total =    -703.783226
siesta:         Fermi =      -4.240218

siesta: Atomic forces (eV/Ang):
siesta:      1   -0.001272    0.008464   -0.014329
siesta:      2    0.000858    0.045776   -0.044125
siesta:      3    0.000150    0.052139    0.001651
siesta:      4    0.000810   -0.002831    0.001825
siesta:      5    0.000061    0.399752    0.494812
siesta:      6   -0.000044   -0.424372   -0.767965
siesta:      7   -0.302607   -0.134996    0.204239
siesta:      8    0.302530   -0.134775    0.204317
siesta:      9   -0.217798    0.083904   -0.030481
siesta:     10    0.217788    0.083472   -0.030478
siesta: ----------------------------------------
siesta:    Tot    0.000476   -0.023467    0.019466

siesta: Stress tensor (static) (eV/Ang**3):
siesta:    -0.034012    0.000001    0.000003
siesta:     0.000001    0.012011    0.001000
siesta:     0.000003    0.001000   -0.001332

siesta: Cell volume =        334.037723 Ang**3

siesta: Pressure (static):
siesta:                Solid            Molecule  Units
siesta:           0.00008471          0.00007753  Ry/Bohr**3
siesta:           0.00777749          0.00711845  eV/Ang**3
siesta:          12.46104669         11.40514113  kBar
(Free)E+ p_basis*V_orbitals  =        -699.077502
(Free)Eharris+ p_basis*V_orbitals  =        -699.077502

siesta: Electric dipole (a.u.)  =    0.000000   -0.000000    0.047620
siesta: Electric dipole (Debye) =    0.000000   -0.000000    0.121038

cite: Please see "si2x1h-quench.bib" for an exhaustive BiBTeX file.
cite: Please clearly indicate Siesta version in published work: v4.1-b4-351
cite: This calculation has made use of the following articles
cite: which are encouraged to be cited in a published work.
        Primary SIESTA paper
          DOI: www.doi.org/10.1088/0953-8984/14/11/302

>> End of run:  22-JAN-2021  23:24:59
Job completed
[1611354299.431594] [n-62-21-35:25020:0]          mpool.c:42   UCX  WARN  object 0x3c53380 was not returned to mpool ucp_requests
