Siesta Version: siesta-3.2
Architecture  : SIESTA_ARCH
Compiler flags: FFLAGS
PARALLEL version
NetCDF support

* Running on    4 nodes in parallel
>> Start of run:  24-MAR-2013  18:30:54

                           ***********************       
                           *  WELCOME TO SIESTA  *       
                           ***********************       

reinit: Reading from standard input
************************** Dump of input data file ****************************
SystemName  Si chain  for COOP curves calculation
SystemLabel si_coop
NumberOfAtoms       4
NumberOfSpecies     1
%block ChemicalSpeciesLabel
 1  14  Si
%endblock ChemicalSpeciesLabel
#------------6.3 BASIS DEFINITION---------------------------------------
PAO.BasisSize      SZP
PAO.EnergyShift   100 meV
#------------6.4 LATTICE, COORDINATES -----------------------------------
LatticeConstant     1.0000 Ang
%block LatticeVectors
 4.000  0.000  0.000
 0.000  10.0  0.000
 0.000  0.000  10.0
%endblock LatticeVectors
AtomicCoordinatesFormat Ang
%block AtomicCoordinatesAndAtomicSpecies
 0.0000   0.0000   0.0000  1
 1.0000   0.0000   0.0000  1
 2.0000   0.0000   0.0000  1
 3.0000   0.0000   0.0000  1
%endblock AtomicCoordinatesAndAtomicSpecies
#------------ K-SAMPLING------------------------------------------------
%block kgrid_Monkhorst_Pack
    8    0    0   0.0
    0    1    0   0.0
    0    0    1   0.0
%endblock kgrid_Monkhorst_Pack
MeshCutoff         150.0 Ry
MaxSCFIterations    500
DM.MixingWeight      0.1
DM.NumberPulay       3
DM.Tolerance         1.d-4
SolutionMethod       diagon
ElectronicTemperature  25  meV
COOP.write T
%block ProjectedDensityOfStates
 -25.  5.  0.2  500   eV
%endblock ProjectedDensityOfStates
************************** End of input data file *****************************

reinit: -----------------------------------------------------------------------
reinit: System Name: Si chain  for COOP curves calculation
reinit: -----------------------------------------------------------------------
reinit: System Label: si_coop                                                     
reinit: -----------------------------------------------------------------------

initatom: Reading input for the pseudopotentials and atomic orbitals ----------
 Species number:            1  Label: Si Atomic number:          14
Ground state valence configuration:   3s02  3p02
Reading pseudopotential information in formatted form from Si.psf

Valence configuration for pseudopotential generation:
3s( 2.00) rc: 1.89
3p( 2.00) rc: 1.89
3d( 0.00) rc: 1.89
4f( 0.00) rc: 1.89
For Si, standard SIESTA heuristics set lmxkb to 3
 (one more than the basis l, including polarization orbitals).
Use PS.lmax or PS.KBprojectors blocks to override.

<basis_specs>
===============================================================================
Si                   Z=  14    Mass=  28.090        Charge= 0.17977+309
Lmxo=1 Lmxkb= 3    BasisType=split      Semic=F
L=0  Nsemic=0  Cnfigmx=3
          n=1  nzeta=1  polorb=0
            splnorm:   0.15000    
               vcte:    0.0000    
               rinn:    0.0000    
                rcs:    0.0000    
            lambdas:    1.0000    
L=1  Nsemic=0  Cnfigmx=3
          n=1  nzeta=1  polorb=1
            splnorm:   0.15000    
               vcte:    0.0000    
               rinn:    0.0000    
                rcs:    0.0000    
            lambdas:    1.0000    
-------------------------------------------------------------------------------
L=0  Nkbl=1  erefs: 0.17977+309
L=1  Nkbl=1  erefs: 0.17977+309
L=2  Nkbl=1  erefs: 0.17977+309
L=3  Nkbl=1  erefs: 0.17977+309
===============================================================================
</basis_specs>

atom: Called for Si                    (Z =  14)

read_vps: Pseudopotential generation method:
read_vps: ATM3      Troullier-Martins                       
Total valence charge:    4.00000

xc_check: Exchange-correlation functional:
xc_check: Ceperley-Alder
V l=0 = -2*Zval/r beyond r=  2.5494
V l=1 = -2*Zval/r beyond r=  2.5494
V l=2 = -2*Zval/r beyond r=  2.5494
V l=3 = -2*Zval/r beyond r=  2.5494
All V_l potentials equal beyond r=  1.8652
This should be close to max(r_c) in ps generation
All pots = -2*Zval/r beyond r=  2.5494
Using large-core scheme for Vlocal

atom: Estimated core radius    2.54944

atom: Including non-local core corrections could be a good idea
atom: Maximum radius for 4*pi*r*r*local-pseudopot. charge    2.85303
atom: Maximum radius for r*vlocal+2*Zval:    2.58151
GHOST: No ghost state for L =  0
GHOST: No ghost state for L =  1
GHOST: No ghost state for L =  2
GHOST: No ghost state for L =  3

KBgen: Kleinman-Bylander projectors: 
   l= 0   rc=  1.936440   el= -0.796617   Ekb=  4.661340   kbcos=  0.299756
   l= 1   rc=  1.936440   el= -0.307040   Ekb=  1.494238   kbcos=  0.301471
   l= 2   rc=  1.936440   el=  0.002313   Ekb= -2.808672   kbcos= -0.054903
   l= 3   rc=  1.936440   el=  0.003402   Ekb= -0.959059   kbcos= -0.005513

KBgen: Total number of  Kleinman-Bylander projectors:   16
atom: -------------------------------------------------------------------------

atom: SANKEY-TYPE ORBITALS:

SPLIT: Orbitals with angular momentum L= 0

SPLIT: Basis orbitals for state 3s

SPLIT: PAO cut-off radius determined from an
SPLIT: energy shift=  0.007350 Ry

   izeta = 1
                 lambda =    1.000000
                     rc =    5.674097
                 energy =   -0.790139
                kinetic =    0.533579
    potential(screened) =   -1.323718
       potential(ionic) =   -3.776962

SPLIT: Orbitals with angular momentum L= 1

SPLIT: Basis orbitals for state 3p

SPLIT: PAO cut-off radius determined from an
SPLIT: energy shift=  0.007350 Ry

   izeta = 1
                 lambda =    1.000000
                     rc =    7.105845
                 energy =   -0.299565
                kinetic =    0.824289
    potential(screened) =   -1.123854
       potential(ionic) =   -3.348521

POLgen: Perturbative polarization orbital with L=  2

POLgen: Polarization orbital for state 3p

   izeta = 1
                     rc =    7.105845
                 energy =    0.366373
                kinetic =    1.162439
    potential(screened) =   -0.796066
       potential(ionic) =   -2.795335
atom: Total number of Sankey-type orbitals:  9

atm_pop: Valence configuration (for local Pseudopot. screening):
 3s( 2.00)                                                            
 3p( 2.00)                                                            
Vna: chval, zval:    4.00000   4.00000

Vna:  Cut-off radius for the neutral-atom potential:   7.105845

atom: _________________________________________________________________________

prinput: Basis input ----------------------------------------------------------

PAO.BasisType split     

%block ChemicalSpeciesLabel
    1   14 Si                      # Species index, atomic number, species label
%endblock ChemicalSpeciesLabel

%block PAO.Basis                 # Define Basis set
Si                    2                    # Species label, number of l-shells
 n=3   0   1                         # n, l, Nzeta 
   5.674   
   1.000   
 n=3   1   1 P   1                   # n, l, Nzeta, Polarization, NzetaPol
   7.106   
   1.000   
%endblock PAO.Basis

prinput: ----------------------------------------------------------------------

Dumping basis to NetCDF file Si.ion.nc
coor:   Atomic-coordinates input format  =     Cartesian coordinates
coor:                                          (in Angstroms)

siesta: Atomic coordinates (Bohr) and species
siesta:      0.00000   0.00000   0.00000  1        1
siesta:      1.88973   0.00000   0.00000  1        2
siesta:      3.77945   0.00000   0.00000  1        3
siesta:      5.66918   0.00000   0.00000  1        4

siesta: System type = chain     

initatomlists: Number of atoms, orbitals, and projectors:      4    36    64

siesta: ******************** Simulation parameters ****************************
siesta:
siesta: The following are some of the parameters of the simulation.
siesta: A complete list of the parameters used, including default values,
siesta: can be found in file out.fdf
siesta:
redata: Non-Collinear-spin run           =     F
redata: SpinPolarized (Up/Down) run      =     F
redata: Number of spin components        =     1
redata: Long output                      =     F
redata: Number of Atomic Species         =        1
redata: Charge density info will appear in .RHO file
redata: Write Mulliken Pop.              =     NO
redata: Mesh Cutoff                      =   150.0000  Ry
redata: Net charge of the system         =     0.0000 |e|
redata: Max. number of SCF Iter          =      500
redata: Performing Pulay mixing using    =     3 iterations
redata: Mix DM in first SCF step ?       =     F
redata: Write Pulay info on disk?        =     F
redata: Discard 1st Pulay DM after  kick =     F
redata: New DM Mixing Weight             =     0.1000
redata: New DM Occupancy tolerance       = 0.000000000001
redata: No kicks to SCF
redata: DM Mixing Weight for Kicks       =     0.5000
redata: DM Tolerance for SCF             =     0.000100
redata: Require Energy convergence for SCF =     F
redata: DM Energy tolerance for SCF      =     0.000100 eV
redata: Require Harris convergence for SCF =     F
redata: DM Harris energy tolerance for SCF =     0.000100 eV
redata: Using Saved Data (generic)   =     F
redata: Use continuation files for DM    =     F
redata: Neglect nonoverlap interactions  =     F
redata: Method of Calculation            =     Diagonalization
redata: Divide and Conquer               =     T
redata: Electronic Temperature           =     0.0018  Ry
redata: Fix the spin of the system       =     F
redata: Dynamics option                  =     Verlet MD run
redata: Initial MD time step             =        1
redata:   Final MD time step             =        1
redata: Length of MD time step           =     1.0000  fs
redata: Initial Temperature of MD run    =     0.0000  K
redata: Perform a MD quench              =     F
redata: ***********************************************************************
Total number of electrons:    16.000000
Total ionic charge:    16.000000

* ProcessorY, Blocksize:    2   9

k-point displ. along   1 input, could be:     0.00    0.50
 Kpoints in:            5 . Kpoints trimmed:            5

siesta: k-grid: Number of k-points =     5
siesta: k-grid: Cutoff (effective) =     5.000 Ang
siesta: k-grid: Supercell and displacements
siesta: k-grid:    8   0   0      0.000
siesta: k-grid:    0   1   0      0.000
siesta: k-grid:    0   0   1      0.000
Naive supercell factors:     5    2    2

superc: Internal auxiliary supercell:     5 x     2 x     2  =      20
superc: Number of atoms, orbitals, and projectors:     80    720   1280

* Maximum dynamic memory allocated =     1 MB

siesta:                 ==============================
                            Begin MD step =      1
                        ==============================

superc: Internal auxiliary supercell:     5 x     2 x     2  =      20
superc: Number of atoms, orbitals, and projectors:     80    720   1280

outcell: Unit cell vectors (Ang):
        4.000000    0.000000    0.000000
        0.000000   10.000000    0.000000
        0.000000    0.000000   10.000000

outcell: Cell vector modules (Ang)   :    4.000000   10.000000   10.000000
outcell: Cell angles (23,13,12) (deg):     90.0000     90.0000     90.0000
outcell: Cell volume (Ang**3)        :    400.0000
New_DM. Step:     1
Initializing Density Matrix...

InitMesh: MESH =    30 x    80 x    80 =      192000
InitMesh: Mesh cutoff (required, used) =   150.000   155.462 Ry

* Maximum dynamic memory allocated =    14 MB

stepf: Fermi-Dirac step function

siesta: Program's energy decomposition (eV):
siesta: Ebs     =      -267.431543
siesta: Eions   =       761.604247
siesta: Ena     =       338.983239
siesta: Ekin    =       147.796633
siesta: Enl     =       198.923208
siesta: DEna    =         0.000000
siesta: DUscf   =         0.000000
siesta: DUext   =         0.000000
siesta: Exc     =      -150.736679
siesta: eta*DQ  =         0.000000
siesta: Emadel  =         0.000000
siesta: Emeta   =         0.000000
siesta: Emolmec =         0.000000
siesta: Ekinion =         0.000000
siesta: Eharris =      -173.874075
siesta: Etot    =      -226.637846
siesta: FreeEng =      -226.637846

siesta: iscf   Eharris(eV)      E_KS(eV)   FreeEng(eV)   dDmax  Ef(eV)
siesta:    1     -173.8741     -226.6378     -226.6378  5.3603 -7.9952
timer: Routine,Calls,Time,% = IterSCF        1       4.432  65.32
elaps: Routine,Calls,Wall,% = IterSCF        1       1.112  61.33
siesta:    2     -173.4390     -173.2390     -173.2477  0.7933 -5.3176
siesta:    3     -173.3892     -179.6618     -179.6786  0.1257 -5.7080
siesta:    4     -173.3873     -178.8497     -178.8600  0.1109 -5.7259
siesta:    5     -173.3793     -174.2684     -174.2782  0.0355 -5.8980
siesta:    6     -173.3793     -173.3651     -173.3738  0.0173 -5.9547
siesta:    7     -173.3794     -173.3304     -173.3391  0.0154 -5.9528
siesta:    8     -173.3792     -173.2330     -173.2417  0.0041 -5.9320
siesta:    9     -173.3792     -173.2491     -173.2578  0.0040 -5.9310
siesta:   10     -173.3792     -173.3763     -173.3851  0.0032 -5.9248
siesta:   11     -173.3792     -173.3912     -173.3999  0.0024 -5.9260
siesta:   12     -173.3792     -173.3912     -173.3999  0.0019 -5.9267
siesta:   13     -173.3792     -173.3502     -173.3589  0.0010 -5.9281
siesta:   14     -173.3792     -173.3506     -173.3593  0.0008 -5.9280
siesta:   15     -173.3792     -173.3742     -173.3829  0.0002 -5.9258
siesta:   16     -173.3792     -173.3755     -173.3842  0.0002 -5.9258
siesta:   17     -173.3792     -173.3809     -173.3896  0.0001 -5.9259

siesta: E_KS(eV) =             -173.3802

siesta: E_KS - E_eggbox =      -173.3802

siesta: Atomic forces (eV/Ang):
----------------------------------------
   Tot   -0.000001   -0.000000    0.000000
----------------------------------------
   Max    0.000017
   Res    0.000006    sqrt( Sum f_i^2 / 3N )
----------------------------------------
   Max    0.000017    constrained

Stress-tensor-Voigt (kbar):    -3079.57       -0.01       -0.01       -0.00       -0.00        0.00
(Free)E + p*V (eV/cell)       82.8917
Target enthalpy (eV/cell)     -173.3889

siesta: Stress tensor (static) (eV/Ang**3):
        -1.922098    0.000000   -0.000000
        -0.000000   -0.000003   -0.000000
         0.000000   -0.000000   -0.000003

siesta: Pressure (static):       1026.52815631  kBar

siesta: Stress tensor (total) (eV/Ang**3):
        -1.922098    0.000000   -0.000000
        -0.000000   -0.000003   -0.000000
         0.000000   -0.000000   -0.000003

siesta: Pressure (total):       1026.52815631  kBar

siesta: Temp_ion =       0.000 K

* Maximum dynamic memory allocated =    14 MB
Writing WFSX for COOP/COHP in si_coop.fullBZ.WFSX
siesta: PDOS info: 
siesta: e1, e2, sigma, nhist:   -25.00 eV    5.00 eV    0.20 eV    500

siesta: Program's energy decomposition (eV):
siesta: Ebs     =      -240.123422
siesta: Eions   =       761.604247
siesta: Ena     =       338.983239
siesta: Ekin    =       258.820452
siesta: Enl     =       149.882631
siesta: DEna    =        -5.130141
siesta: DUscf   =         1.219853
siesta: DUext   =         0.000000
siesta: Exc     =      -155.551969
siesta: eta*DQ  =         0.000000
siesta: Emadel  =         0.000000
siesta: Emeta   =         0.000000
siesta: Emolmec =         0.000000
siesta: Ekinion =         0.000000
siesta: Eharris =      -173.379200
siesta: Etot    =      -173.380183
siesta: FreeEng =      -173.388894

siesta: Final energy (eV):
siesta:  Band Struct. =    -240.123422
siesta:       Kinetic =     258.820452
siesta:       Hartree =     824.751502
siesta:    Ext. field =       0.000000
siesta:   Exch.-corr. =    -155.551969
siesta:  Ion-electron =   -1945.342477
siesta:       Ion-ion =     843.942310
siesta:       Ekinion =       0.000000
siesta:         Total =    -173.380183

siesta: Stress tensor (static) (eV/Ang**3):
siesta:    -1.922098    0.000000   -0.000000
siesta:    -0.000000   -0.000003   -0.000000
siesta:     0.000000   -0.000000   -0.000003

siesta: Cell volume =        400.000000 Ang**3

siesta: Pressure (static):
siesta:                Solid            Molecule  Units
siesta:           0.00697806          0.00697806  Ry/Bohr**3
siesta:           0.64070155          0.64070153  eV/Ang**3
siesta:        1026.52815631       1026.52811975  kBar
(Free)E+ p_basis*V_orbitals  =        -170.598666
(Free)Eharris+ p_basis*V_orbitals  =        -170.597007

siesta: Electric dipole (a.u.)  =    0.000000   -0.000000   -0.000000
siesta: Electric dipole (Debye) =    0.000000   -0.000000   -0.000000

* Maximum dynamic memory allocated : Node    0 =    14 MB
* Maximum dynamic memory allocated : Node    1 =    14 MB
* Maximum dynamic memory allocated : Node    2 =    14 MB
* Maximum dynamic memory allocated : Node    3 =    14 MB

* Maximum memory occured during redistribXZ                   

timer: CPU execution times:
timer:  Routine       Calls   Time/call    Tot.time        %
timer:  siesta            1      23.947      23.947   100.00
timer:  Setup             1       1.869       1.869     7.80
timer:  bands             1       0.000       0.000     0.00
timer:  writewave         2       0.033       0.066     0.28
timer:  KSV_init          1       0.002       0.002     0.01
timer:  IterMD            1      21.391      21.391    89.32
timer:  hsparse           1       0.000       0.000     0.00
timer:  overlap           1       0.460       0.460     1.92
timer:  IterSCF          17       1.114      18.941    79.09
timer:  kinefsm           2       0.215       0.430     1.80
timer:  nlefsm            2       0.877       1.755     7.33
timer:  DHSCF            18       0.917      16.497    68.89
timer:  DHSCF1            1       0.243       0.243     1.01
timer:  DHSCF2            1       1.179       1.179     4.92
timer:  REORD           146       0.000       0.052     0.22
timer:  POISON           19       0.058       1.093     4.56
timer:  DHSCF3           18       0.782      14.082    58.80
timer:  rhoofd           18       0.448       8.064    33.67
timer:  cellXC           18       0.034       0.612     2.56
timer:  vmat             18       0.216       3.887    16.23
timer:  MolMec            2       0.000       0.001     0.00
timer:  diagon           17       0.107       1.824     7.62
timer:  c-eigval         85       0.010       0.872     3.64
timer:  c-buildHS        85       0.000       0.028     0.12
timer:  cdiag           180       0.010       1.825     7.62
timer:  cdiag1          180       0.001       0.110     0.46
timer:  cdiag2          180       0.001       0.155     0.65
timer:  cdiag3          180       0.008       1.469     6.13
timer:  cdiag4          180       0.000       0.024     0.10
timer:  c-eigvec         90       0.010       0.944     3.94
timer:  c-buildD         85       0.001       0.056     0.23
timer:  DHSCF4            1       0.973       0.973     4.06
timer:  dfscf             1       0.867       0.867     3.62
timer:  overfsm           1       0.004       0.004     0.02
timer:  pdos              1       0.183       0.183     0.76
timer:  optical           1       0.417       0.417     1.74
  

elaps: ELAPSED times:
elaps:  Routine       Calls   Time/call    Tot.time        %
elaps:  siesta            1       6.116       6.116   100.00
elaps:  Setup             1       0.579       0.579     9.47
elaps:  bands             1       0.001       0.001     0.02
elaps:  writewave         2       0.009       0.017     0.28
elaps:  KSV_init          1       0.000       0.000     0.00
elaps:  IterMD            1       5.354       5.354    87.54
elaps:  hsparse           1       0.001       0.001     0.02
elaps:  overlap           1       0.116       0.116     1.90
elaps:  IterSCF          17       0.279       4.741    77.52
elaps:  kinefsm           2       0.054       0.108     1.77
elaps:  nlefsm            2       0.218       0.437     7.15
elaps:  DHSCF            18       0.230       4.135    67.61
elaps:  DHSCF1            1       0.061       0.061     1.00
elaps:  DHSCF2            1       0.295       0.295     4.82
elaps:  REORD           146       0.000       0.020     0.33
elaps:  POISON           19       0.014       0.272     4.45
elaps:  DHSCF3           18       0.196       3.519    57.54
elaps:  rhoofd           18       0.116       2.087    34.12
elaps:  cellXC           18       0.009       0.153     2.50
elaps:  vmat             18       0.054       0.972    15.89
elaps:  MolMec            2       0.000       0.000     0.00
elaps:  diagon           17       0.027       0.460     7.52
elaps:  c-eigval         85       0.003       0.219     3.58
elaps:  c-buildHS        85       0.000       0.009     0.15
elaps:  cdiag           180       0.002       0.448     7.33
elaps:  cdiag1          180       0.000       0.019     0.31
elaps:  cdiag2          180       0.000       0.041     0.67
elaps:  cdiag3          180       0.002       0.367     6.00
elaps:  cdiag4          180       0.000       0.011     0.18
elaps:  c-eigvec         90       0.003       0.238     3.89
elaps:  c-buildD         85       0.000       0.012     0.20
elaps:  DHSCF4            1       0.254       0.254     4.15
elaps:  dfscf             1       0.226       0.226     3.70
elaps:  overfsm           1       0.001       0.001     0.02
elaps:  pdos              1       0.156       0.156     2.55
elaps:  optical           1       0.000       0.000     0.00
  
>> End of run:  24-MAR-2013  18:31:01
