Siesta Version  : v4.1-b4-351
Architecture    : x86_64-linux-n-62-26-19
Compiler version: GNU Fortran (GCC) 9.3.0
Compiler flags  : mpifort -m64 -fPIC -O3 -march=native -ftree-vectorize -fexpensive-optimizatioons -funroll-loops -fprefetch-loop-arrays -fno-second-underscore  -flto
PP flags        : -I/dtu/sw/dcc/SL73/2020-aug/generic/build-tools/1.0/include -I/dtu/sw/dcc/SL773/2020-aug/generic/gcc/9.3.0/include -I/dtu/sw/dcc/SL73/2020-aug/generic/gcc/9.3.0/include -I/dtu/sw/dcc/SL73/2020-aug/XeonE5-2660v3/gnu/9.3.0/zlib/1.2.11/include -I/dtu/sw/dcc/SL73/2020-aug/generic/numactl/2.0.12/include -I/dtu/sw/dcc/SL73/2020-aug/XeonE5-2660v3/gnu/9.3.0/libxml2/2.9.10/include -I/dtu/sw/dcc/SL73/2020-aug/XeonE5-2660v3/gnu/9.3.0/hwloc/2.2.0/include -I/dtu/sw/dcc/SL73/2020-aug/XeonE5-2660v3/gnu/9.3.0/knem/1.1.4/include -I/dtu/sw/dcc/SL73/2020-aug/XeonE5-2660v3/gnu/9.3.0/ucx/1.8.1/include -I/dtu/sw/dcc/SL73/2020-aug/XeonE5-2660v3/gnu/9.3.0/openmpi/4.0.4/include -I/dtu/sw/dcc/SL73/2020-aug/XeonE5-2660v3/gnu/9.3.0/szip/2.1.1/include -I/dtu/sw/dcc/SL73/2020-aug/XeonE5-2660v3/gnu/9.3.0/hdf5/1.12.0/include -I/dtu/sw/dcc/SL73/2020-aug/XeonE5-2660v3/gnu/9.3.0/pnetcdf/1.12.1/include -I/dtu/sw/dcc/SL73/2020-aug/generic/gen-zlib/1.2.11/include -I/dtu/sw/dcc/SL73/2020-aug/generic/openssl/1.1.1/include -I/dtu/sw/dcc/SL73/2020-aug/generic/libssh2/1.8.2/include -I/dtu/sw/dcc/SL73/2020-aug/generic/curl/7.65.1/include -I/dtu/sw/dcc/SL73/2020-aug/XeonE5-2660v3/gnu/9.3.0/netcdf/4.7.4/include -I/dtu/sw/dcc/SL73/2020-aug/XeonE5-2660v3/gnu/9.3.0/flook/0.8.1/include -I/dtu/sw/dcc/SL73/2020-aug/XeonE5-2660v3/gnu/9.3.0/fftw/3.3.8/include -I/dtu/sw/dcc/SL73/2020-aug/XeonE5-2660v3/gnu/9.3.0/parmetis/4.0.3/include -I/dtu/sw/dcc/SL73/2020-aug/XeonE5-2660v3/gnu/9.3.0/scalapack/2.1.0/include -I/dtu/sw/dcc/SL73/2020-aug/XeonE5-2660v3/gnu/9.3.0/lapack/3.9.0/include -I/dtu/sw/dcc/SL73/2020-aug/XeonE5-2660v3/gnu/9.3.0/blis/0.7.0/include -I/dtu/sw/dcc/SL73/2020-aug/XeonE5-2660v3/gnu/9.3.0/scotch/6.0.9/include -I/dtu/sw/dcc/SL73/2020-aug/XeonE5-2660v3/gnu/9.3.0/mumps/5.3.3/include -I/dtu/sw/dcc/SL73/2020-aug/XeonE5-2660v3/gnu/9.3.0/elpa/2020.05.001/include -DSIESTA__ELPA -DMPI -DFC_HAVE_FLUSH -DFC_HAVE_ABORT -DCDF -DCDF4 -DSIESTA__FLOOK  -DNCDF -DNCDF_4 -DNCDF_PARALLEL -DTS_NOCHECKS -DSIESTA__METIS -DSIESTA__MUMPS -DSIESTA__MRRR -I/dtu/sw/dcc/SL73/2020-aug/XeonE5-2660v3/gnu/9.3.0/elpa/2020.05.001/include/elpa
Libraries       : libncdf.a libfdict.a -lnetcdff -lnetcdf -lpnetcdf -lhdf5_hl -lhdf5 -lz  -lzmuumps -lmumps_common -lesmumps -lscotch -lscotcherr -lpord -lparmetis -lmetis -lelpa -lscalapack -llapack -lblis  -L/dtu/sw/dcc/SL73/2020-aug/XeonE5-2660v3/gnu/9.3.0/flook/0.8.1/lib -Wl,-rpath=/dtu/sw/dcc/SL73/2020-aug/XeonE5-2660v3/gnu/9.3.0/flook/0.8.1/lib -lflookall -ldl  -flto -fuse-linker-plugin  -lmetis
PARALLEL version
NetCDF support
NetCDF-4 support
NetCDF-4 MPI-IO support
METIS ordering support
Lua support

* Running on 8 nodes in parallel
>> Start of run:  22-JAN-2021  23:25:14

                           ***********************       
                           *  WELCOME TO SIESTA  *       
                           ***********************       

reinit: Reading from ../sic-slab.fdf

reinit: -----------------------------------------------------------------------
reinit: System Name: H-SiC surface
reinit: -----------------------------------------------------------------------
reinit: System Label: sic-slab
reinit: -----------------------------------------------------------------------

initatom: Reading input for the pseudopotentials and atomic orbitals ----------
Species number:   1 Atomic number:   14 Label: Si.pbe
Species number:   2 Atomic number:    6 Label: C.pbe
Species number:   3 Atomic number:    1 Label: H.pbe

Ground state valence configuration:   3s02  3p02
Reading pseudopotential information in formatted form from Si.pbe.psf

Valence configuration for pseudopotential generation:
3s( 2.00) rc: 1.89
3p( 2.00) rc: 1.89
3d( 0.00) rc: 1.89
4f( 0.00) rc: 1.89
Ground state valence configuration:   2s02  2p02
Reading pseudopotential information in formatted form from C.pbe.psf

Valence configuration for pseudopotential generation:
2s( 2.00) rc: 1.49
2p( 2.00) rc: 1.52
3d( 0.00) rc: 1.52
Ground state valence configuration:   1s01
Reading pseudopotential information in formatted form from H.pbe.psf

Valence configuration for pseudopotential generation:
1s( 1.00) rc: 1.43
2p( 0.00) rc: 1.25
3d( 0.00) rc: 1.25
4f( 0.00) rc: 1.25
For Si.pbe, standard SIESTA heuristics set lmxkb to 2
 (one more than the basis l, including polarization orbitals).
Use PS.lmax or PS.KBprojectors blocks to override.
For C.pbe, standard SIESTA heuristics set lmxkb to 2
 (one more than the basis l, including polarization orbitals).
Use PS.lmax or PS.KBprojectors blocks to override.
For H.pbe, standard SIESTA heuristics set lmxkb to 2
 (one more than the basis l, including polarization orbitals).
Use PS.lmax or PS.KBprojectors blocks to override.

<basis_specs>
===============================================================================
Si.pbe               Z=  14    Mass=  28.090        Charge= 0.33050    
Lmxo=1 Lmxkb= 2    BasisType=split      Semic=F
L=0  Nsemic=0  Cnfigmx=3
          i=1  nzeta=1  polorb=0  (3s)
            splnorm:   0.15000    
               vcte:    175.72    
               rinn:    6.2327    
               qcoe:    0.0000    
               qyuk:    0.0000    
               qwid:   0.10000E-01
                rcs:    6.2845    
            lambdas:    1.0000    
L=1  Nsemic=0  Cnfigmx=3
          i=1  nzeta=1  polorb=0  (3p)
            splnorm:   0.15000    
               vcte:    27.011    
               rinn:    6.3612    
               qcoe:    0.0000    
               qyuk:    0.0000    
               qwid:   0.10000E-01
                rcs:    7.4564    
            lambdas:    1.0000    
-------------------------------------------------------------------------------
L=0  Nkbl=1  erefs: 0.17977+309
L=1  Nkbl=1  erefs: 0.17977+309
L=2  Nkbl=1  erefs: 0.17977+309
===============================================================================
</basis_specs>

atom: Called for Si.pbe                (Z =  14)

read_vps: Pseudopotential generation method:
read_vps: ATM3      Troullier-Martins                       
Valence charge for ps generation:    4.00000

xc_check: Exchange-correlation functional:
xc_check: GGA Perdew, Burke & Ernzerhof 1996
V l=0 = -2*Zval/r beyond r=  2.7826
V l=1 = -2*Zval/r beyond r=  2.7826
V l=2 = -2*Zval/r beyond r=  2.7826
All V_l potentials equal beyond r=  1.8652
This should be close to max(r_c) in ps generation
All pots = -2*Zval/r beyond r=  2.7826
Using large-core scheme for Vlocal

atom: Estimated core radius    2.78258

atom: Including non-local core corrections could be a good idea
atom: Maximum radius for 4*pi*r*r*local-pseudopot. charge    3.07525
atom: Maximum radius for r*vlocal+2*Zval:    2.81758
GHOST: No ghost state for L =  0
GHOST: No ghost state for L =  1
GHOST: No ghost state for L =  2

KBgen: Kleinman-Bylander projectors: 
   l= 0   rc=  1.936440   el= -0.791474   Ekb=  4.527346   kbcos=  0.300929
   l= 1   rc=  1.936440   el= -0.300649   Ekb=  1.471620   kbcos=  0.304055
   l= 2   rc=  1.936440   el=  0.001958   Ekb= -2.865202   kbcos= -0.050894

KBgen: Total number of  Kleinman-Bylander projectors:    9
atom: -------------------------------------------------------------------------

atom: SANKEY-TYPE ORBITALS:

atom: basis set generated (by rescaling the valence charge)
atom: for a cation of charge   0.3305

SPLIT: Orbitals with angular momentum L= 0

SPLIT: Basis orbitals for state 3s

   izeta = 1
                 lambda =    1.000000
                     rc =    6.270866
                 energy =   -1.030900
                kinetic =    0.542146
    potential(screened) =   -1.573046
       potential(ionic) =   -3.777459

SPLIT: Orbitals with angular momentum L= 1

SPLIT: Basis orbitals for state 3p

   izeta = 1
                 lambda =    1.000000
                     rc =    7.470179
                 energy =   -0.513956
                kinetic =    0.889669
    potential(screened) =   -1.403625
       potential(ionic) =   -3.442715
atom: Total number of Sankey-type orbitals:  4

atm_pop: Valence configuration (for local Pseudopot. screening):
 3s( 2.00)                                                            
 3p( 2.00)                                                            
Vna: chval, zval:    4.00000   4.00000

Vna:  Cut-off radius for the neutral-atom potential:   7.470179

atom: _________________________________________________________________________

<basis_specs>
===============================================================================
C.pbe                Z=   6    Mass=  12.010        Charge=-0.20340    
Lmxo=1 Lmxkb= 2    BasisType=split      Semic=F
L=0  Nsemic=0  Cnfigmx=2
          i=1  nzeta=1  polorb=0  (2s)
            splnorm:   0.15000    
               vcte:    166.60    
               rinn:    6.0853    
               qcoe:    0.0000    
               qyuk:    0.0000    
               qwid:   0.10000E-01
                rcs:    6.1031    
            lambdas:    1.0000    
L=1  Nsemic=0  Cnfigmx=2
          i=1  nzeta=1  polorb=0  (2p)
            splnorm:   0.15000    
               vcte:    92.896    
               rinn:    8.1457    
               qcoe:    0.0000    
               qyuk:    0.0000    
               qwid:   0.10000E-01
                rcs:    8.2107    
            lambdas:    1.0000    
-------------------------------------------------------------------------------
L=0  Nkbl=1  erefs: 0.17977+309
L=1  Nkbl=1  erefs: 0.17977+309
L=2  Nkbl=1  erefs: 0.17977+309
===============================================================================
</basis_specs>

atom: Called for C.pbe                 (Z =   6)

read_vps: Pseudopotential generation method:
read_vps: ATM 3.2.2 Troullier-Martins                       
Valence charge for ps generation:    4.00000

read_vps: Pseudopotential includes a core correction:
read_vps: Pseudo-core for xc-correction

xc_check: Exchange-correlation functional:
xc_check: GGA Perdew, Burke & Ernzerhof 1996
V l=0 = -2*Zval/r beyond r=  1.4666
V l=1 = -2*Zval/r beyond r=  1.5038
V l=2 = -2*Zval/r beyond r=  1.5038
All V_l potentials equal beyond r=  1.5038
This should be close to max(r_c) in ps generation
All pots = -2*Zval/r beyond r=  1.5038

VLOCAL1: 99.0% of the norm of Vloc inside     19.196 Ry
VLOCAL1: 99.9% of the norm of Vloc inside     43.748 Ry
atom: Maximum radius for 4*pi*r*r*local-pseudopot. charge    1.81396
atom: Maximum radius for r*vlocal+2*Zval:    1.56123
GHOST: No ghost state for L =  0
GHOST: No ghost state for L =  1
GHOST: No ghost state for L =  2

KBgen: Kleinman-Bylander projectors: 
   l= 0   rc=  1.682861   el= -1.009802   Ekb=  5.530688   kbcos=  0.309203
   l= 1   rc=  1.682861   el= -0.388707   Ekb= -3.901042   kbcos= -0.358653
   l= 2   rc=  1.769164   el=  0.001971   Ekb= -0.965319   kbcos= -0.008918

KBgen: Total number of  Kleinman-Bylander projectors:    9
atom: -------------------------------------------------------------------------

atom: SANKEY-TYPE ORBITALS:

atom: basis set generated (by rescaling the valence charge)
atom: for an anion of charge  -0.2034

SPLIT: Orbitals with angular momentum L= 0

SPLIT: Basis orbitals for state 2s

   izeta = 1
                 lambda =    1.000000
                     rc =    6.099293
                 energy =   -1.008072
                kinetic =    0.786791
    potential(screened) =   -1.794863
       potential(ionic) =   -5.296547

SPLIT: Orbitals with angular momentum L= 1

SPLIT: Basis orbitals for state 2p

   izeta = 1
                 lambda =    1.000000
                     rc =    8.233328
                 energy =   -0.384246
                kinetic =    2.061715
    potential(screened) =   -2.445961
       potential(ionic) =   -5.701979
atom: Total number of Sankey-type orbitals:  4

atm_pop: Valence configuration (for local Pseudopot. screening):
 2s( 2.00)                                                            
 2p( 2.00)                                                            
Vna: chval, zval:    4.00000   4.00000

Vna:  Cut-off radius for the neutral-atom potential:   8.233328
comcore: Pseudo-core radius Rcore=  1.791422

atom: _________________________________________________________________________

<basis_specs>
===============================================================================
H.pbe                Z=   1    Mass=  1.0100        Charge= 0.17977+309
Lmxo=0 Lmxkb= 2    BasisType=split      Semic=F
L=0  Nsemic=0  Cnfigmx=1
          i=1  nzeta=2  polorb=1  (1s)
            splnorm:   0.15000    
               vcte:    0.0000    
               rinn:    0.0000    
               qcoe:    0.0000    
               qyuk:    0.0000    
               qwid:   0.10000E-01
                rcs:    0.0000      0.0000    
            lambdas:    1.0000      1.0000    
-------------------------------------------------------------------------------
L=0  Nkbl=1  erefs: 0.17977+309
L=1  Nkbl=1  erefs: 0.17977+309
L=2  Nkbl=1  erefs: 0.17977+309
===============================================================================
</basis_specs>

atom: Called for H.pbe                 (Z =   1)

read_vps: Pseudopotential generation method:
read_vps: ATM 3.2.2 Troullier-Martins                       
Valence charge for ps generation:    1.00000

xc_check: Exchange-correlation functional:
xc_check: GGA Perdew, Burke & Ernzerhof 1996
V l=0 = -2*Zval/r beyond r=  1.4166
V l=1 = -2*Zval/r beyond r=  1.3816
V l=2 = -2*Zval/r beyond r=  1.3816
All V_l potentials equal beyond r=  1.4166
This should be close to max(r_c) in ps generation
All pots = -2*Zval/r beyond r=  1.4166

VLOCAL1: 99.0% of the norm of Vloc inside     21.631 Ry
VLOCAL1: 99.9% of the norm of Vloc inside     49.298 Ry
atom: Maximum radius for 4*pi*r*r*local-pseudopot. charge    1.66698
atom: Maximum radius for r*vlocal+2*Zval:    1.39896
GHOST: No ghost state for L =  0
GHOST: No ghost state for L =  1
GHOST: No ghost state for L =  2

KBgen: Kleinman-Bylander projectors: 
   l= 0   rc=  1.565833   el= -0.477200   Ekb= -1.851072   kbcos= -0.391986
   l= 1   rc=  1.646243   el=  0.001076   Ekb= -0.560969   kbcos= -0.025747
   l= 2   rc=  1.687980   el=  0.002010   Ekb= -0.184546   kbcos= -0.003662

KBgen: Total number of  Kleinman-Bylander projectors:    9
atom: -------------------------------------------------------------------------

atom: SANKEY-TYPE ORBITALS:
atom: Selected multiple-zeta basis: split     

SPLIT: Orbitals with angular momentum L= 0

SPLIT: Basis orbitals for state 1s

SPLIT: PAO cut-off radius determined from an
SPLIT: energy shift=  0.020000 Ry

   izeta = 1
                 lambda =    1.000000
                     rc =    4.708991
                 energy =   -0.457754
                kinetic =    0.969078
    potential(screened) =   -1.426832
       potential(ionic) =   -1.954497

   izeta = 2
                 rmatch =    3.759707
              splitnorm =    0.150000
                 energy =   -0.338955
                kinetic =    1.561908
    potential(screened) =   -1.900862
       potential(ionic) =   -2.450466

POLgen: Perturbative polarization orbital with L=  1

POLgen: Polarization orbital for state 1s

   izeta = 1
                     rc =    4.708991
                 energy =    0.764844
                kinetic =    1.483543
    potential(screened) =   -0.718699
       potential(ionic) =   -1.210766
atom: Total number of Sankey-type orbitals:  5

atm_pop: Valence configuration (for local Pseudopot. screening):
 1s( 1.00)                                                            
Vna: chval, zval:    1.00000   1.00000

Vna:  Cut-off radius for the neutral-atom potential:   4.708991

atom: _________________________________________________________________________

prinput: Basis input ----------------------------------------------------------

PAO.BasisType split     

%block ChemicalSpeciesLabel
    1   14 Si.pbe                  # Species index, atomic number, species label
    2    6 C.pbe                   # Species index, atomic number, species label
    3    1 H.pbe                   # Species index, atomic number, species label
%endblock ChemicalSpeciesLabel

%block PAO.Basis                 # Define Basis set
Si.pbe                2   0.331            # Label, l-shells, ionic net charge
 n=3   0   1                         # n, l, Nzeta 
   6.271   
   1.000   
 n=3   1   1                         # n, l, Nzeta 
   7.470   
   1.000   
C.pbe                 2  -0.203            # Label, l-shells, ionic net charge
 n=2   0   1                         # n, l, Nzeta 
   6.099   
   1.000   
 n=2   1   1                         # n, l, Nzeta 
   8.233   
   1.000   
H.pbe                 1                    # Species label, number of l-shells
 n=1   0   2 P   1                   # n, l, Nzeta, Polarization, NzetaPol
   4.709      3.760   
   1.000      1.000   
%endblock PAO.Basis

prinput: ----------------------------------------------------------------------

Dumping basis to NetCDF file Si.pbe.ion.nc
Dumping basis to NetCDF file C.pbe.ion.nc
Dumping basis to NetCDF file H.pbe.ion.nc
coor:   Atomic-coordinates input format  =     Cartesian coordinates
coor:                                          (in Angstroms)

siesta: Atomic coordinates (Bohr) and species
siesta:      0.00000   0.00000   2.09509  1        1
siesta:      0.00000   5.89276   2.09509  1        2
siesta:      5.89276   0.00000   2.09509  1        3
siesta:      5.89276   5.89276   2.09509  1        4
siesta:     11.78551   0.00000   2.09509  1        5
siesta:     11.78551   5.89276   2.09509  1        6
siesta:      2.94638   2.94638   6.28526  1        7
siesta:      2.94638   8.83913   6.28526  1        8
siesta:      8.83913   2.94638   6.28526  1        9
siesta:      8.83913   8.83913   6.28526  1       10
siesta:     14.73189   2.94638   6.28526  1       11
siesta:     14.73189   8.83913   6.28526  1       12
siesta:      0.01943   0.01257  10.43700  1       13
siesta:      0.02005   5.88412  10.43697  1       14
siesta:      5.88572   0.01041  10.49451  1       15
siesta:      5.88522   5.88634  10.49450  1       16
siesta:     11.75273   0.01516  10.44056  1       17
siesta:     11.75272   5.88124  10.44112  1       18
siesta:      2.90539   2.94969  14.73251  1       19
siesta:      2.90852   8.84266  14.65932  1       20
siesta:      8.83599   2.94881  14.74497  1       21
siesta:      8.86576   8.84141  14.65814  1       22
siesta:     14.72584   2.94923  14.52925  1       23
siesta:     14.73445   8.84167  14.47460  1       24
siesta:     -0.62892  -0.02525  18.75121  1       25
siesta:     -0.62820   5.92728  18.75163  1       26
siesta:      5.82977  -0.10334  18.88184  1       27
siesta:      5.82928   6.00228  18.88149  1       28
siesta:     12.43800  -0.02041  18.71654  1       29
siesta:     12.43847   5.92012  18.71732  1       30
siesta:      2.50006  -0.59770  21.88324  1       31
siesta:      9.31040  -0.64211  21.82872  1       32
siesta:      2.50034   6.50121  21.88319  1       33
siesta:      9.30982   6.53825  21.82891  1       34
siesta:      3.17909   2.95107  24.80650  1       35
siesta:      7.42712   2.94828  23.66212  1       36
siesta:      0.00000   2.94638   0.00000  2       37
siesta:      0.00000   8.83913   0.00000  2       38
siesta:      5.89276   2.94638   0.00000  2       39
siesta:      5.89276   8.83913   0.00000  2       40
siesta:     11.78551   2.94638   0.00000  2       41
siesta:     11.78551   8.83913   0.00000  2       42
siesta:      2.94638   0.00000   4.19017  2       43
siesta:      2.94638   5.89276   4.19017  2       44
siesta:      8.83913   0.00000   4.19017  2       45
siesta:      8.83913   5.89276   4.19017  2       46
siesta:     14.73189   0.00000   4.19017  2       47
siesta:     14.73189   5.89276   4.19017  2       48
siesta:      0.01005   2.94773   8.35244  2       49
siesta:      0.01172   8.84077   8.36619  2       50
siesta:      5.89093   2.94787   8.38397  2       51
siesta:      5.89124   8.84049   8.39503  2       52
siesta:     11.77268   2.94789   8.35315  2       53
siesta:     11.76862   8.84052   8.37012  2       54
siesta:      2.92883   0.01963  12.58727  2       55
siesta:      2.92889   5.87917  12.58714  2       56
siesta:      8.83835   0.02218  12.59173  2       57
siesta:      8.83778   5.87470  12.59177  2       58
siesta:     14.72417   0.01630  12.45737  2       59
siesta:     14.72420   5.88159  12.45717  2       60
siesta:     -0.08677   2.95054  16.72801  2       61
siesta:     -0.09209   8.84323  16.64294  2       62
siesta:      5.85248   2.94999  16.89358  2       63
siesta:      5.90005   8.84236  16.66174  2       64
siesta:     11.83834   2.94940  16.72387  2       65
siesta:     11.86708   8.84238  16.63615  2       66
siesta:      1.49836   2.94645  -1.32281  3       67
siesta:     -1.70931   2.94635  -1.32281  3       68
siesta:      1.65433   8.83912  -1.32281  3       69
siesta:     -1.55940   8.83912  -1.32281  3       70
siesta:      7.39117   2.94638  -1.32281  3       71
siesta:      4.18365   2.94626  -1.32281  3       72
siesta:      7.54746   8.83913  -1.32281  3       73
siesta:      4.33372   8.83909  -1.32281  3       74
siesta:     13.28404   2.94638  -1.32281  3       75
siesta:     10.07638   2.94637  -1.32281  3       76
siesta:     13.44048   8.83912  -1.32281  3       77
siesta:     10.22677   8.83912  -1.32281  3       78

siesta: System type = slab      

initatomlists: Number of atoms, orbitals, and projectors:     78   324   702

siesta: ******************** Simulation parameters ****************************
siesta:
siesta: The following are some of the parameters of the simulation.
siesta: A complete list of the parameters used, including default values,
siesta: can be found in file out.fdf
siesta:
redata: Spin configuration                          = none
redata: Number of spin components                   = 1
redata: Time-Reversal Symmetry                      = T
redata: Spin spiral                                 = F
redata: Long output                                 =   F
redata: Number of Atomic Species                    =        3
redata: Charge density info will appear in .RHO file
redata: Write Mulliken Pop.                         = NO
redata: Matel table size (NRTAB)                    =     1024
redata: Mesh Cutoff                                 =   150.0000 Ry
redata: Net charge of the system                    =    -1.0000 |e|
redata: Min. number of SCF Iter                     =        0
redata: Max. number of SCF Iter                     =     1000
redata: SCF convergence failure will abort job
redata: SCF mix quantity                            = Hamiltonian
redata: Mix DM or H after convergence               =   F
redata: Recompute H after scf cycle                 =   F
redata: Mix DM in first SCF step                    =   T
redata: Write Pulay info on disk                    =   F
redata: New DM Occupancy tolerance                  = 0.000000000001
redata: No kicks to SCF
redata: DM Mixing Weight for Kicks                  =     0.5000
redata: Require Harris convergence for SCF          =   F
redata: Harris energy tolerance for SCF             =     0.000100 eV
redata: Require DM convergence for SCF              =   T
redata: DM tolerance for SCF                        =     0.001000
redata: Require EDM convergence for SCF             =   F
redata: EDM tolerance for SCF                       =     0.001000 eV
redata: Require H convergence for SCF               =   T
redata: Hamiltonian tolerance for SCF               =     0.001000 eV
redata: Require (free) Energy convergence for SCF   =   F
redata: (free) Energy tolerance for SCF             =     0.000100 eV
redata: Using Saved Data (generic)                  =   T
redata: Use continuation files for DM               =   T
redata: Neglect nonoverlap interactions             =   F
redata: Method of Calculation                       = Diagonalization
redata: Electronic Temperature                      =   299.9869 K
redata: Fix the spin of the system                  =   F
redata: Dynamics option                             = Single-point calculation
mix.SCF: Pulay mixing                            = Pulay
mix.SCF:    Variant                              = stable
mix.SCF:    History steps                        = 3
mix.SCF:    Linear mixing weight                 =     0.010000
mix.SCF:    Mixing weight                        =     0.010000
mix.SCF:    SVD condition                        = 0.1000E-07
redata: Save all siesta data in one NC              =   F
redata: ***********************************************************************

%block SCF.Mixers
  Pulay
%endblock SCF.Mixers

%block SCF.Mixer.Pulay
  # Mixing method
  method pulay
  variant stable

  # Mixing options
  weight 0.0100
  weight.linear 0.0100
  history 3
%endblock SCF.Mixer.Pulay

DM_history_depth set to one: no extrapolation allowed by default for geometry relaxation
Size of DM history Fstack: 1
Total number of electrons:   277.000000
Total ionic charge:   276.000000
madelung: WARNING: Charged system, but not an atom or molecule.
madelung: WARNING: Energy correction terms can not be applied. 
madelung: WARNING: Continue only if you really know what you are doing.

* ProcessorY, Blocksize:    2  24


* Orbital distribution balance (max,min):    48    24

k-point displ. along   3 input, could be:     0.50    0.00
 Kpoints in:            2 . Kpoints trimmed:            2

siesta: k-grid: Number of k-points =     2
siesta: k-grid: Cutoff (effective) =     6.237 Ang
siesta: k-grid: Supercell and displacements
siesta: k-grid:    2   0   0      0.500
siesta: k-grid:    0   2   0      0.500
siesta: k-grid:    0   0   1      0.500

diag: Algorithm                                     = Expert
diag: Parallel over k                               =   F
diag: Use parallel 2D distribution                  =   T
diag: Parallel block-size                           = 24
diag: Parallel distribution                         =     2 x     4
diag: Used triangular part                          = Lower
diag: Absolute tolerance                            =  0.100E-15
diag: Orthogonalization factor                      =  0.100E-05
diag: Memory factor                                 =  1.0000

superc: Internal auxiliary supercell:     3 x     5 x     1  =      15
superc: Number of atoms, orbitals, and projectors:   1170   4860  10530


ts: **************************************************************
ts: Save H and S matrices                           =    F
ts: Save DM and EDM matrices                        =    F
ts: Only save the overlap matrix S                  =    F
ts: **************************************************************

************************ Begin: TS CHECKS AND WARNINGS ************************
************************ End: TS CHECKS AND WARNINGS **************************


                     ====================================
                        Single-point calculation
                     ====================================

superc: Internal auxiliary supercell:     3 x     5 x     1  =      15
superc: Number of atoms, orbitals, and projectors:   1170   4860  10530

outcell: Unit cell vectors (Ang):
        9.354933    0.000000    0.000000
        0.000000    6.236622    0.000000
        0.000000    0.000000   26.460000

outcell: Cell vector modules (Ang)   :    9.354933    6.236622   26.460000
outcell: Cell angles (23,13,12) (deg):     90.0000     90.0000     90.0000
outcell: Cell volume (Ang**3)        :   1543.7606
<dSpData1D:S at geom step 0
  <sparsity:sparsity for geom step 0
    nrows_g=324 nrows=48 sparsity=.3980 nnzs=41779, refcount: 7>
  <dData1D:(new from dSpData1D) n=41779, refcount: 1>
refcount: 1>
new_DM -- step:     1
Initializing Density Matrix...

Attempting to read DM from file... Failed...
DM filled with atomic data:
<dSpData2D:DM initialized from atoms
  <sparsity:sparsity for geom step 0
    nrows_g=324 nrows=48 sparsity=.3980 nnzs=41779, refcount: 8>
  <dData2D:DM n=41779 m=1, refcount: 1>
refcount: 1>
Note: For starting DM, Qtot, Tr[D*S] =        277.00000000        276.00000000
No. of atoms with KB's overlaping orbs in proc 0. Max # of overlaps:     186     170
New grid distribution:   1
           1       1:   36    1:   12    1:   25
           2       1:   36    1:   12   26:   50
           3       1:   36    1:   12   51:   75
           4       1:   36    1:   12   76:  100
           5       1:   36   13:   24    1:   25
           6       1:   36   13:   24   26:   50
           7       1:   36   13:   24   51:   75
           8       1:   36   13:   24   76:  100

InitMesh: MESH =    72 x    48 x   200 =      691200
InitMesh: (bp) =    36 x    24 x   100 =       86400
InitMesh: Mesh cutoff (required, used) =   150.000   157.900 Ry
ExtMesh (bp) on 0 =   104 x    80 x    93 =      773760
New grid distribution:   2
           1      19:   36    1:   24    1:   12
           2      19:   36    1:   24   23:   33
           3      18:   36    1:   24   34:  100
           4       1:   18    1:   24   13:   22
           5       1:   18    1:   24    1:   12
           6       1:   18    1:   24   23:   33
           7       1:   17    1:   24   34:  100
           8      19:   36    1:   24   13:   22
New grid distribution:   3
           1      19:   36    1:   24    1:   19
           2       1:   18    1:   24   39:   57
           3      19:   36    1:   24   20:   38
           4      17:   36    1:   24   58:  100
           5       1:   18    1:   24    1:   19
           6      19:   36    1:   24   39:   57
           7       1:   18    1:   24   20:   38
           8       1:   16    1:   24   58:  100
Setting up quadratic distribution...
ExtMesh (bp) on 0 =    86 x    92 x    80 =      632960
PhiOnMesh: Number of (b)points on node 0 =                 5184
PhiOnMesh: nlist on node 0 =               491560

doping: SimulateDoping = .true. in input file
doping: Neutralizing background will be added to points
doping: other than vacuum, to simulate doping

dipole: A dipole layer will be introduced in the vacuum
dipole: region to compensate the system dipole
Dipole moment in unit cell =       0.0000      -0.0000       1.8475 D
Electric field for dipole correction =    -0.000000     0.000000    -0.045086 eV/Ang/e

stepf: Fermi-Dirac step function
Dipole moment in unit cell =      -0.0000       0.0000     -19.5633 D
Electric field for dipole correction =     0.000000    -0.000000     0.477415 eV/Ang/e

siesta: Program's energy decomposition (eV):
siesta: Ebs     =     -2587.933159
siesta: Eions   =     14694.110283
siesta: Ena     =      3895.789278
siesta: Ekin    =      5738.883894
siesta: Enl     =      -159.652987
siesta: Eso     =         0.000000
siesta: Edftu   =         0.000000
siesta: DEna    =      -667.440977
siesta: DUscf   =       303.397647
siesta: DUext   =         0.972250
siesta: Exc     =     -3012.125171
siesta: eta*DQ  =         0.000000
siesta: Emadel  =         0.000000
siesta: Emeta   =         0.000000
siesta: Emolmec =         0.000000
siesta: Ekinion =         0.000000
siesta: Eharris =     -8043.543723
siesta: Etot    =     -8594.286349
siesta: FreeEng =     -8594.322186

        iscf     Eharris(eV)        E_KS(eV)     FreeEng(eV)     dDmax    Ef(eV) dHmax(eV)
   scf:    1    -8043.543723    -8594.286349    -8594.322186  1.746005 -3.823583 13.382736
timer: Routine,Calls,Time,% = IterSCF        1       1.792  40.14
Dipole moment in unit cell =       0.0000      -0.0000     664.2755 D
Electric field for dipole correction =    -0.000000     0.000000   -16.210694 eV/Ang/e
   scf:    2      612.722732    -5635.648221    -5635.689751  1.567702 -2.083145235.219864
Dipole moment in unit cell =      -0.0000       0.0000     -19.4740 D
Electric field for dipole correction =     0.000000    -0.000000     0.475236 eV/Ang/e
   scf:    3    -8313.200990    -8608.386409    -8608.422246  1.529648 -3.751960 12.385135
Dipole moment in unit cell =      -0.0000       0.0000     -16.6400 D
Electric field for dipole correction =     0.000000    -0.000000     0.406075 eV/Ang/e
   scf:    4    -8770.312941    -8701.088461    -8701.124298  0.373186 -3.065426  4.174133
Dipole moment in unit cell =      -0.0000       0.0000     -16.4304 D
Electric field for dipole correction =     0.000000    -0.000000     0.400959 eV/Ang/e
   scf:    5    -8699.718910    -8700.407991    -8700.443828  0.007345 -3.060017  4.045396
Dipole moment in unit cell =      -0.0000       0.0000      -2.5149 D
Electric field for dipole correction =     0.000000    -0.000000     0.061372 eV/Ang/e
   scf:    6    -8732.770857    -8720.348360    -8720.384229  0.172643 -2.341186  2.786451
Dipole moment in unit cell =      -0.0000       0.0000     -11.7510 D
Electric field for dipole correction =     0.000000    -0.000000     0.286767 eV/Ang/e
   scf:    7    -8703.293326    -8712.949062    -8712.984899  0.090602 -2.707254  1.831205
Dipole moment in unit cell =       0.0000      -0.0000      38.1778 D
Electric field for dipole correction =    -0.000000     0.000000    -0.931675 eV/Ang/e
   scf:    8    -8686.890805    -8709.815910    -8709.851750  0.437926 -2.279779 17.163163
Dipole moment in unit cell =       0.0000      -0.0000       3.4379 D
Electric field for dipole correction =    -0.000000     0.000000    -0.083896 eV/Ang/e
   scf:    9    -8723.591345    -8720.507470    -8720.543616  0.319894 -2.281112  4.516407
Dipole moment in unit cell =      -0.0000       0.0000      -7.9637 D
Electric field for dipole correction =     0.000000    -0.000000     0.194342 eV/Ang/e
   scf:   10    -8715.200912    -8718.499925    -8718.535762  0.106125 -2.477367  1.628881
Dipole moment in unit cell =      -0.0000       0.0000      -7.2764 D
Electric field for dipole correction =     0.000000    -0.000000     0.177571 eV/Ang/e
   scf:   11    -8719.625391    -8719.072419    -8719.108257  0.008921 -2.445639  1.759024
Dipole moment in unit cell =      -0.0000       0.0000      -9.5605 D
Electric field for dipole correction =     0.000000    -0.000000     0.233310 eV/Ang/e
   scf:   12    -8713.863638    -8716.604352    -8716.640189  0.034310 -2.567590  1.341210
Dipole moment in unit cell =      -0.0000       0.0000      -9.9103 D
Electric field for dipole correction =     0.000000    -0.000000     0.241846 eV/Ang/e
   scf:   13    -8715.664185    -8716.138726    -8716.174563  0.007136 -2.591022  1.251182
Dipole moment in unit cell =      -0.0000       0.0000      -9.5158 D
Electric field for dipole correction =     0.000000    -0.000000     0.232221 eV/Ang/e
   scf:   14    -8718.592478    -8717.394621    -8717.430458  0.017708 -2.570885  1.297306
Dipole moment in unit cell =      -0.0000       0.0000      -8.1563 D
Electric field for dipole correction =     0.000000    -0.000000     0.199044 eV/Ang/e
   scf:   15    -8721.452861    -8719.515282    -8719.551120  0.030545 -2.496391  1.059482
Dipole moment in unit cell =      -0.0000       0.0000      -8.3612 D
Electric field for dipole correction =     0.000000    -0.000000     0.204044 eV/Ang/e
   scf:   16    -8719.269221    -8719.392761    -8719.428598  0.001885 -2.505243  1.095593
Dipole moment in unit cell =      -0.0000       0.0000      -7.9305 D
Electric field for dipole correction =     0.000000    -0.000000     0.193534 eV/Ang/e
   scf:   17    -8723.143488    -8721.466577    -8721.502414  0.047894 -2.459884  1.014760
Dipole moment in unit cell =      -0.0000       0.0000      -8.2279 D
Electric field for dipole correction =     0.000000    -0.000000     0.200791 eV/Ang/e
   scf:   18    -8721.523653    -8721.495491    -8721.531329  0.002548 -2.468329  1.026167
Dipole moment in unit cell =      -0.0000       0.0000      -8.5320 D
Electric field for dipole correction =     0.000000    -0.000000     0.208211 eV/Ang/e
   scf:   19    -8721.345563    -8721.421693    -8721.457530  0.003304 -2.478772  1.004083
Dipole moment in unit cell =      -0.0000       0.0000      -8.7982 D
Electric field for dipole correction =     0.000000    -0.000000     0.214708 eV/Ang/e
   scf:   20    -8720.641178    -8721.045646    -8721.081483  0.012390 -2.490455  0.858184
Dipole moment in unit cell =      -0.0000       0.0000      -8.7477 D
Electric field for dipole correction =     0.000000    -0.000000     0.213476 eV/Ang/e
   scf:   21    -8721.058664    -8721.052226    -8721.088063  0.000880 -2.487179  0.810671
Dipole moment in unit cell =      -0.0000       0.0000      -8.0162 D
Electric field for dipole correction =     0.000000    -0.000000     0.195625 eV/Ang/e
   scf:   22    -8721.997217    -8721.544681    -8721.580518  0.013301 -2.447484  0.581572
Dipole moment in unit cell =      -0.0000       0.0000      -8.0173 D
Electric field for dipole correction =     0.000000    -0.000000     0.195651 eV/Ang/e
   scf:   23    -8721.614305    -8721.579625    -8721.615463  0.001219 -2.446690  0.578530
Dipole moment in unit cell =      -0.0000       0.0000      -7.5759 D
Electric field for dipole correction =     0.000000    -0.000000     0.184879 eV/Ang/e
   scf:   24    -8722.560149    -8722.204399    -8722.240237  0.037806 -2.402975  0.373851
Dipole moment in unit cell =      -0.0000       0.0000      -7.5681 D
Electric field for dipole correction =     0.000000    -0.000000     0.184689 eV/Ang/e
   scf:   25    -8722.216538    -8722.210690    -8722.246528  0.001423 -2.400807  0.350145
Dipole moment in unit cell =      -0.0000       0.0000      -7.6450 D
Electric field for dipole correction =     0.000000    -0.000000     0.186565 eV/Ang/e
   scf:   26    -8722.212578    -8722.222288    -8722.258125  0.009538 -2.382419  0.060025
Dipole moment in unit cell =      -0.0000       0.0000      -7.6371 D
Electric field for dipole correction =     0.000000    -0.000000     0.186372 eV/Ang/e
   scf:   27    -8722.222085    -8722.222188    -8722.258025  0.000167 -2.381907  0.059222
Dipole moment in unit cell =      -0.0000       0.0000      -7.6132 D
Electric field for dipole correction =     0.000000    -0.000000     0.185789 eV/Ang/e
   scf:   28    -8722.220836    -8722.221528    -8722.257365  0.000750 -2.379632  0.055961
Dipole moment in unit cell =      -0.0000       0.0000      -7.6023 D
Electric field for dipole correction =     0.000000    -0.000000     0.185524 eV/Ang/e
   scf:   29    -8722.221577    -8722.221554    -8722.257392  0.000423 -2.378328  0.054332
Dipole moment in unit cell =      -0.0000       0.0000      -7.5967 D
Electric field for dipole correction =     0.000000    -0.000000     0.185387 eV/Ang/e
   scf:   30    -8722.225674    -8722.223652    -8722.259489  0.000647 -2.376408  0.052930
Dipole moment in unit cell =      -0.0000       0.0000      -7.6014 D
Electric field for dipole correction =     0.000000    -0.000000     0.185502 eV/Ang/e
   scf:   31    -8722.226465    -8722.225085    -8722.260922  0.000505 -2.376404  0.053742
Dipole moment in unit cell =      -0.0000       0.0000      -7.6164 D
Electric field for dipole correction =     0.000000    -0.000000     0.185867 eV/Ang/e
   scf:   32    -8722.229727    -8722.227548    -8722.263385  0.001175 -2.377718  0.057571
Dipole moment in unit cell =      -0.0000       0.0000      -7.6132 D
Electric field for dipole correction =     0.000000    -0.000000     0.185789 eV/Ang/e
   scf:   33    -8722.228060    -8722.227806    -8722.263643  0.000121 -2.377531  0.057780
Dipole moment in unit cell =      -0.0000       0.0000      -7.5969 D
Electric field for dipole correction =     0.000000    -0.000000     0.185391 eV/Ang/e
   scf:   34    -8722.228027    -8722.227919    -8722.263756  0.000367 -2.376371  0.056552
Dipole moment in unit cell =      -0.0000       0.0000      -7.5868 D
Electric field for dipole correction =     0.000000    -0.000000     0.185146 eV/Ang/e
   scf:   35    -8722.226708    -8722.227329    -8722.263166  0.000404 -2.375479  0.053916
Dipole moment in unit cell =      -0.0000       0.0000      -7.5815 D
Electric field for dipole correction =     0.000000    -0.000000     0.185015 eV/Ang/e
   scf:   36    -8722.224868    -8722.226134    -8722.261971  0.000601 -2.374723  0.049587
Dipole moment in unit cell =      -0.0000       0.0000      -7.5959 D
Electric field for dipole correction =     0.000000    -0.000000     0.185367 eV/Ang/e
   scf:   37    -8722.224901    -8722.225524    -8722.261361  0.000217 -2.375368  0.046736
Dipole moment in unit cell =      -0.0000       0.0000      -7.6066 D
Electric field for dipole correction =     0.000000    -0.000000     0.185627 eV/Ang/e
   scf:   38    -8722.226091    -8722.225810    -8722.261647  0.000173 -2.376018  0.046335
Dipole moment in unit cell =      -0.0000       0.0000      -7.6271 D
Electric field for dipole correction =     0.000000    -0.000000     0.186128 eV/Ang/e
   scf:   39    -8722.229285    -8722.227638    -8722.263476  0.000945 -2.377624  0.048960
Dipole moment in unit cell =      -0.0000       0.0000      -7.6278 D
Electric field for dipole correction =     0.000000    -0.000000     0.186145 eV/Ang/e
   scf:   40    -8722.228095    -8722.227869    -8722.263706  0.000129 -2.377712  0.049282
Dipole moment in unit cell =      -0.0000       0.0000      -7.6102 D
Electric field for dipole correction =     0.000000    -0.000000     0.185716 eV/Ang/e
   scf:   41    -8722.228907    -8722.228396    -8722.264233  0.000310 -2.376631  0.049398
Dipole moment in unit cell =      -0.0000       0.0000      -7.6100 D
Electric field for dipole correction =     0.000000    -0.000000     0.185710 eV/Ang/e
   scf:   42    -8722.228432    -8722.228414    -8722.264251  0.000011 -2.376602  0.049436
Dipole moment in unit cell =      -0.0000       0.0000      -7.6115 D
Electric field for dipole correction =     0.000000    -0.000000     0.185748 eV/Ang/e
   scf:   43    -8722.228208    -8722.228311    -8722.264148  0.000060 -2.376782  0.049259
Dipole moment in unit cell =      -0.0000       0.0000      -7.5707 D
Electric field for dipole correction =     0.000000    -0.000000     0.184751 eV/Ang/e
   scf:   44    -8722.229229    -8722.228785    -8722.264622  0.001309 -2.372927  0.042625
Dipole moment in unit cell =      -0.0000       0.0000      -7.5653 D
Electric field for dipole correction =     0.000000    -0.000000     0.184621 eV/Ang/e
   scf:   45    -8722.229152    -8722.228969    -8722.264807  0.000240 -2.372272  0.040945
Dipole moment in unit cell =      -0.0000       0.0000      -7.5761 D
Electric field for dipole correction =     0.000000    -0.000000     0.184885 eV/Ang/e
   scf:   46    -8722.232059    -8722.231185    -8722.267022  0.002556 -2.367790  0.017532
Dipole moment in unit cell =      -0.0000       0.0000      -7.5754 D
Electric field for dipole correction =     0.000000    -0.000000     0.184866 eV/Ang/e
   scf:   47    -8722.231190    -8722.231187    -8722.267025  0.000050 -2.367668  0.017299
Dipole moment in unit cell =      -0.0000       0.0000      -7.5547 D
Electric field for dipole correction =     0.000000    -0.000000     0.184361 eV/Ang/e
   scf:   48    -8722.230879    -8722.231070    -8722.266907  0.001331 -2.364401  0.011181
Dipole moment in unit cell =      -0.0000       0.0000      -7.5601 D
Electric field for dipole correction =     0.000000    -0.000000     0.184494 eV/Ang/e
   scf:   49    -8722.231422    -8722.231343    -8722.267180  0.000974 -2.365464  0.007861
Dipole moment in unit cell =      -0.0000       0.0000      -7.5596 D
Electric field for dipole correction =     0.000000    -0.000000     0.184482 eV/Ang/e
   scf:   50    -8722.231343    -8722.231343    -8722.267180  0.000022 -2.365424  0.007736
Dipole moment in unit cell =      -0.0000       0.0000      -7.5530 D
Electric field for dipole correction =     0.000000    -0.000000     0.184321 eV/Ang/e
   scf:   51    -8722.231365    -8722.231355    -8722.267192  0.000310 -2.364773  0.005880
Dipole moment in unit cell =      -0.0000       0.0000      -7.5511 D
Electric field for dipole correction =     0.000000    -0.000000     0.184274 eV/Ang/e
   scf:   52    -8722.231367    -8722.231362    -8722.267200  0.000131 -2.364467  0.004858
Dipole moment in unit cell =      -0.0000       0.0000      -7.5511 D
Electric field for dipole correction =     0.000000    -0.000000     0.184273 eV/Ang/e
   scf:   53    -8722.231350    -8722.231358    -8722.267195  0.000131 -2.364290  0.003934
Dipole moment in unit cell =      -0.0000       0.0000      -7.5560 D
Electric field for dipole correction =     0.000000    -0.000000     0.184394 eV/Ang/e
   scf:   54    -8722.231339    -8722.231349    -8722.267186  0.000131 -2.364614  0.004013
Dipole moment in unit cell =      -0.0000       0.0000      -7.5566 D
Electric field for dipole correction =     0.000000    -0.000000     0.184407 eV/Ang/e
   scf:   55    -8722.231350    -8722.231350    -8722.267187  0.000017 -2.364663  0.004034
Dipole moment in unit cell =      -0.0000       0.0000      -7.5583 D
Electric field for dipole correction =     0.000000    -0.000000     0.184450 eV/Ang/e
   scf:   56    -8722.231354    -8722.231358    -8722.267195  0.000226 -2.364988  0.004263
Dipole moment in unit cell =      -0.0000       0.0000      -7.5582 D
Electric field for dipole correction =     0.000000    -0.000000     0.184448 eV/Ang/e
   scf:   57    -8722.231357    -8722.231357    -8722.267195  0.000005 -2.364993  0.004257
Dipole moment in unit cell =      -0.0000       0.0000      -7.5577 D
Electric field for dipole correction =     0.000000    -0.000000     0.184436 eV/Ang/e
   scf:   58    -8722.231356    -8722.231357    -8722.267194  0.000021 -2.365001  0.004184
Dipole moment in unit cell =      -0.0000       0.0000      -7.5572 D
Electric field for dipole correction =     0.000000    -0.000000     0.184423 eV/Ang/e
   scf:   59    -8722.231361    -8722.231359    -8722.267196  0.000030 -2.364932  0.004060
Dipole moment in unit cell =      -0.0000       0.0000      -7.5569 D
Electric field for dipole correction =     0.000000    -0.000000     0.184416 eV/Ang/e
   scf:   60    -8722.231361    -8722.231360    -8722.267198  0.000023 -2.364881  0.003947
Dipole moment in unit cell =      -0.0000       0.0000      -7.5575 D
Electric field for dipole correction =     0.000000    -0.000000     0.184431 eV/Ang/e
   scf:   61    -8722.231361    -8722.231361    -8722.267198  0.000105 -2.364683  0.003138
Dipole moment in unit cell =      -0.0000       0.0000      -7.5575 D
Electric field for dipole correction =     0.000000    -0.000000     0.184430 eV/Ang/e
   scf:   62    -8722.231362    -8722.231361    -8722.267199  0.000007 -2.364669  0.003082
Dipole moment in unit cell =      -0.0000       0.0000      -7.5541 D
Electric field for dipole correction =     0.000000    -0.000000     0.184348 eV/Ang/e
   scf:   63    -8722.231365    -8722.231365    -8722.267202  0.000175 -2.364364  0.001803
Dipole moment in unit cell =      -0.0000       0.0000      -7.5540 D
Electric field for dipole correction =     0.000000    -0.000000     0.184343 eV/Ang/e
   scf:   64    -8722.231364    -8722.231364    -8722.267201  0.000009 -2.364354  0.001700
Dipole moment in unit cell =      -0.0000       0.0000      -7.5541 D
Electric field for dipole correction =     0.000000    -0.000000     0.184347 eV/Ang/e
   scf:   65    -8722.231362    -8722.231363    -8722.267200  0.000037 -2.364433  0.001276
Dipole moment in unit cell =      -0.0000       0.0000      -7.5543 D
Electric field for dipole correction =     0.000000    -0.000000     0.184352 eV/Ang/e
   scf:   66    -8722.231364    -8722.231363    -8722.267201  0.000005 -2.364445  0.001262
Dipole moment in unit cell =      -0.0000       0.0000      -7.5557 D
Electric field for dipole correction =     0.000000    -0.000000     0.184387 eV/Ang/e
   scf:   67    -8722.231367    -8722.231365    -8722.267202  0.000047 -2.364514  0.001266
Dipole moment in unit cell =      -0.0000       0.0000      -7.5557 D
Electric field for dipole correction =     0.000000    -0.000000     0.184386 eV/Ang/e
   scf:   68    -8722.231365    -8722.231365    -8722.267203  0.000002 -2.364512  0.001264
Dipole moment in unit cell =      -0.0000       0.0000      -7.5553 D
Electric field for dipole correction =     0.000000    -0.000000     0.184377 eV/Ang/e
   scf:   69    -8722.231367    -8722.231366    -8722.267203  0.000021 -2.364477  0.001224
Dipole moment in unit cell =      -0.0000       0.0000      -7.5549 D
Electric field for dipole correction =     0.000000    -0.000000     0.184366 eV/Ang/e
   scf:   70    -8722.231366    -8722.231366    -8722.267203  0.000017 -2.364448  0.001148
Dipole moment in unit cell =      -0.0000       0.0000      -7.5545 D
Electric field for dipole correction =     0.000000    -0.000000     0.184358 eV/Ang/e
   scf:   71    -8722.231366    -8722.231366    -8722.267203  0.000016 -2.364424  0.001044
Dipole moment in unit cell =      -0.0000       0.0000      -7.5549 D
Electric field for dipole correction =     0.000000    -0.000000     0.184366 eV/Ang/e
   scf:   72    -8722.231365    -8722.231365    -8722.267203  0.000024 -2.364435  0.000675

SCF Convergence by DM+H criterion
max |DM_out - DM_in|         :     0.0000244071
max |H_out - H_in|      (eV) :     0.0006745323
SCF cycle converged after 72 iterations

Using DM_out to compute the final energy and forces
No. of atoms with KB's overlaping orbs in proc 0. Max # of overlaps:     186     170
Dipole moment in unit cell =      -0.0000       0.0000      -7.5549 D
Electric field for dipole correction =     0.000000    -0.000000     0.184366 eV/Ang/e

siesta: E_KS(eV) =            -8722.2314

siesta: E_KS - E_eggbox =     -8722.2314

siesta: Atomic forces (eV/Ang):
----------------------------------------
   Tot   -0.001671    0.003463   -0.327177
----------------------------------------
   Max    2.401660
   Res    0.554932    sqrt( Sum f_i^2 / 3N )
----------------------------------------
   Max    2.401660    constrained

Stress tensor Voigt[x,y,z,yz,xz,xy] (kbar):      -76.20      -69.19      -64.19        0.19        2.46       -0.01
(Free)E + p*V (eV/cell)    -8654.9546
Target enthalpy (eV/cell)    -8722.2672

siesta: Program's energy decomposition (eV):
siesta: Ebs     =     -3426.769955
siesta: Eions   =     14694.110283
siesta: Ena     =      3895.789278
siesta: Ekin    =      4992.009041
siesta: Enl     =       133.189206
siesta: Eso     =         0.000000
siesta: Edftu   =         0.000000
siesta: DEna    =      -260.440267
siesta: DUscf   =        63.586905
siesta: DUext   =         0.144993
siesta: Exc     =     -2852.400239
siesta: eta*DQ  =         0.000000
siesta: Emadel  =         0.000000
siesta: Emeta   =         0.000000
siesta: Emolmec =         0.000000
siesta: Ekinion =         0.000000
siesta: Eharris =     -8722.231365
siesta: Etot    =     -8722.231365
siesta: FreeEng =     -8722.267203

siesta: Final energy (eV):
siesta:  Band Struct. =   -3426.769955
siesta:       Kinetic =    4992.009041
siesta:       Hartree =   66137.478742
siesta:       Edftu   =       0.000000
siesta:       Eso     =       0.000000
siesta:    Ext. field =       0.144993
siesta:   Exch.-corr. =   -2852.400239
siesta:  Ion-electron = -137038.316128
siesta:       Ion-ion =   60038.852225
siesta:       Ekinion =       0.000000
siesta:         Total =   -8722.231365
siesta:         Fermi =      -2.364435

siesta: Atomic forces (eV/Ang):
siesta:      1    0.006286    0.002234   -0.553348
siesta:      2    0.006035   -0.001350   -0.553347
siesta:      3    0.001381    0.002505   -0.554471
siesta:      4    0.001486   -0.001527   -0.554464
siesta:      5   -0.003309    0.000467   -0.552054
siesta:      6   -0.003377    0.000496   -0.551898
siesta:      7    0.150478    0.004082    0.238815
siesta:      8    0.156649    0.006180    0.333411
siesta:      9   -0.184013    0.006320    0.246931
siesta:     10   -0.177296    0.004241    0.333257
siesta:     11   -0.017011    0.005945    0.339549
siesta:     12   -0.036948    0.004441    0.457962
siesta:     13   -0.052370    0.016480    0.574606
siesta:     14   -0.062637   -0.022187    0.572504
siesta:     15   -0.001291    0.004032    0.683271
siesta:     16    0.005778   -0.012361    0.682111
siesta:     17    0.037439   -0.002835    0.576393
siesta:     18    0.033846   -0.002679    0.568400
siesta:     19    0.188513   -0.002173    0.813140
siesta:     20    0.225288   -0.005409    0.863433
siesta:     21   -0.225854   -0.000656    0.809384
siesta:     22   -0.141775    0.000633    0.876943
siesta:     23   -0.042426    0.000204    0.071149
siesta:     24   -0.013149    0.003136    0.093336
siesta:     25   -0.010627    0.081939    1.061141
siesta:     26   -0.015487   -0.096705    1.057243
siesta:     27    0.287410   -0.023350    0.716709
siesta:     28    0.289176    0.030789    0.722246
siesta:     29   -0.044116    0.076188    1.230725
siesta:     30   -0.045625   -0.085244    1.223174
siesta:     31   -0.352654   -0.265510    0.091598
siesta:     32    0.011853    0.083437    0.172657
siesta:     33   -0.349543    0.258112    0.097448
siesta:     34    0.013733   -0.077598    0.169186
siesta:     35   -0.706053    0.002104    1.674243
siesta:     36    1.046615   -0.000250    1.385322
siesta:     37   -2.401660    0.000007    0.332117
siesta:     38    1.076686   -0.000041    0.058171
siesta:     39   -2.398289   -0.000176    0.326756
siesta:     40    1.083848   -0.000011    0.053434
siesta:     41   -2.397544   -0.000006    0.331587
siesta:     42    1.091498   -0.000014    0.058204
siesta:     43    0.039939   -0.000283   -0.431191
siesta:     44    0.039484    0.000998   -0.430788
siesta:     45   -0.034311    0.000467   -0.430485
siesta:     46   -0.034312    0.000217   -0.430980
siesta:     47    0.000175   -0.000942   -0.426312
siesta:     48    0.000568    0.001705   -0.426446
siesta:     49   -0.040941    0.003329   -0.541977
siesta:     50   -0.025955   -0.001299   -0.511647
siesta:     51    0.004070    0.001090   -0.514434
siesta:     52   -0.004959    0.002870   -0.502006
siesta:     53    0.015866    0.000761   -0.535386
siesta:     54    0.040437   -0.000519   -0.527140
siesta:     55   -0.058436    0.012624   -0.754351
siesta:     56   -0.058775   -0.011731   -0.749091
siesta:     57    0.087699   -0.004574   -0.752202
siesta:     58    0.092465    0.008398   -0.753365
siesta:     59    0.017913    0.000747   -0.730361
siesta:     60    0.021324   -0.003160   -0.729042
siesta:     61   -0.195962    0.002722   -0.855028
siesta:     62   -0.211985    0.001783   -0.848698
siesta:     63    0.243241   -0.009395   -0.936777
siesta:     64   -0.344183   -0.000616   -0.966397
siesta:     65    0.219095    0.006910   -0.901208
siesta:     66    0.254976   -0.003235   -0.821223
siesta:     67    1.562449   -0.000120   -1.166159
siesta:     68    0.803796    0.000050    0.801469
siesta:     69   -0.265382    0.000079    0.387234
siesta:     70   -0.790842    0.000032   -0.485762
siesta:     71    1.560734    0.000071   -1.167712
siesta:     72    0.803590    0.000334    0.800231
siesta:     73   -0.270765    0.000036    0.388741
siesta:     74   -0.794625    0.000041   -0.490506
siesta:     75    1.561192    0.000038   -1.165415
siesta:     76    0.802387    0.000042    0.801260
siesta:     77   -0.272880    0.000062    0.391551
siesta:     78   -0.799706    0.000043   -0.492550
siesta: ----------------------------------------
siesta:    Tot   -0.001671    0.003463   -0.327177

siesta: Stress tensor (static) (eV/Ang**3):
siesta:    -0.047559   -0.000005    0.001536
siesta:    -0.000005   -0.043186    0.000121
siesta:     0.001536    0.000121   -0.040065

siesta: Cell volume =       1543.760568 Ang**3

siesta: Pressure (static):
siesta:                Solid            Molecule  Units
siesta:           0.00047489          0.00031280  Ry/Bohr**3
siesta:           0.04360303          0.02872018  eV/Ang**3
siesta:          69.86050900         46.01530093  kBar
(Free)E+ p_basis*V_orbitals  =       -8683.077177
(Free)Eharris+ p_basis*V_orbitals  =       -8683.077176

siesta: Electric dipole (a.u.)  =   -0.000000    0.000000   -2.972315
siesta: Electric dipole (Debye) =   -0.000000    0.000000   -7.554876
Dipole moment in unit cell =      -0.0000       0.0000      -7.5549 D
Electric field for dipole correction =     0.000000    -0.000000     0.184366 eV/Ang/e

dhscf: Vacuum level (max, mean) =    2.191860   -0.040870 eV

cite: Please see "sic-slab.bib" for an exhaustive BiBTeX file.
cite: Please clearly indicate Siesta version in published work: v4.1-b4-351
cite: This calculation has made use of the following articles
cite: which are encouraged to be cited in a published work.
        Primary SIESTA paper
          DOI: www.doi.org/10.1088/0953-8984/14/11/302
        Slab-dipole correction
          DOI: www.doi.org/10.1103/PhysRevB.59.12301

>> End of run:  22-JAN-2021  23:26:35
Job completed
[1611354396.018587] [n-62-21-35:26484:0]          mpool.c:42   UCX  WARN  object 0x39e2380 was not returned to mpool ucp_requests
[1611354396.019317] [n-62-21-35:26491:0]          mpool.c:42   UCX  WARN  object 0x364e540 was not returned to mpool ucp_requests
[1611354396.019642] [n-62-21-35:26493:0]          mpool.c:42   UCX  WARN  object 0x32b9700 was not returned to mpool ucp_requests
[1611354396.020299] [n-62-21-35:26487:0]          mpool.c:42   UCX  WARN  object 0x3608540 was not returned to mpool ucp_requests
