Siesta Version: siesta-3.2
Architecture  : SIESTA_ARCH
Compiler flags: FFLAGS
PARALLEL version
NetCDF support

* Running on    4 nodes in parallel
>> Start of run:  24-MAR-2013  18:31:02

                           ***********************       
                           *  WELCOME TO SIESTA  *       
                           ***********************       

reinit: Reading from standard input
************************** Dump of input data file ****************************
SystemName          H-SiC surface
SystemLabel         sic-slab
NumberOfAtoms        78
NumberOfSpecies       3
%block ChemicalSpeciesLabel
  1  14  Si.pbe
  2   6  C.pbe
  3   1  H.pbe
%endblock ChemicalSpeciesLabel
XC.functional GGA
XC.authors PBE
######################################
NetCharge -1
SlabDipoleCorrection .true.
SimulateDoping       .true.
######################################
PAO.BasisType    split
%block PAO.Basis
Si.pbe     2  0.3305                    # Species label, number of l-shells
n=3   0   1   E   175.7234 6.2327
     6.2845
     1.0000
 n=3   1   1   E   27.01148 6.3612
     7.4564
     1.0000
C.pbe     2  -0.2034                 # Species label, number of l-shell
n=2    0   1   E   166.5952 6.0853
     6.1031
     1.0000
 n=2   1   1   E   92.8959 8.1457
     8.2107
     1.0000
%endblock PAOBasis
#####################################################
LatticeConstant     4.41 Ang
%block LatticeVectors
   2.1213  0.000   0.000
   0.000   1.4142  0.000
   0.000   0.000   6.000
%endblock LatticeVectors
%block kgrid_Monkhorst_Pack
   2 0 0  0.5
   0 2 0  0.5
   0 0 1  0.5
%endblock Kgrid_Monkhorst_Pack
MeshCutoff          150.0 Ry
MaxSCFIterations    1000
DM.MixingWeight      0.01
DM.MixSCF1           true
DM.NumberPulay       3
DM.Tolerance         1.d-3
Diag.ParallelOverK .false.
SolutionMethod       diagon
Diag.DivideandConquer .false.
MD.TypeOfRun         cg
MD.NumCGsteps       0
UseSaveData    true
AtomicCoordinatesFormat Ang
%block AtomicCoordinatesAndAtomicSpecies
   0.00000000    0.00000000    1.10867100 1
   0.00000000    3.11831100    1.10867100 1
   3.11831100    0.00000000    1.10867100 1
   3.11831100    3.11831100    1.10867100 1
   6.23662200    0.00000000    1.10867100 1
   6.23662200    3.11831100    1.10867100 1
   1.55915550    1.55915550    3.32601240 1
   1.55915550    4.67746650    3.32601240 1
   4.67746650    1.55915550    3.32601240 1
   4.67746650    4.67746650    3.32601240 1
   7.79577750    1.55915550    3.32601240 1
   7.79577750    4.67746650    3.32601240 1
   0.01027940    0.00664970    5.52302280 1
   0.01060850    3.11373910    5.52300540 1
   3.11458540    0.00550670    5.55345380 1
   3.11432280    3.11491680    5.55344830 1
   6.21927560    0.00802080    5.52490330 1
   6.21927070    3.11221930    5.52519910 1
   1.53746550    1.56090880    7.79610790 1
   1.53912180    4.67933110    7.75737400 1
   4.67580380    1.56044320    7.80269800 1
   4.69155670    4.67867200    7.75674950 1
   7.79257630    1.56066510    7.68854410 1
   7.79713220    4.67880950    7.65962760 1
  -0.33280770   -0.01336080    9.92270830 1
  -0.33242730    3.13658110    9.92293350 1
   3.08498250   -0.05468280    9.99183650 1
   3.08472280    3.17626970    9.99165200 1
   6.58190510   -0.01079790    9.90436510 1
   6.58215340    3.13279030    9.90477480 1
   1.32297380   -0.31629120   11.58010590 1
   4.92684820   -0.33978750   11.55125900 1
   1.32312360    3.44028980   11.58008110 1
   4.92654070    3.45989040   11.55135850 1
   1.68230240    1.56163700   13.12703150 1
   3.93025970    1.56016040   12.52144840 1
   0.00000000    1.55915550    0.00000000 2
   0.00000000    4.67746650    0.00000000 2
   3.11831100    1.55915550    0.00000000 2
   3.11831100    4.67746650    0.00000000 2
   6.23662200    1.55915550    0.00000000 2
   6.23662200    4.67746650    0.00000000 2
   1.55915550    0.00000000    2.21734150 2
   1.55915550    3.11831100    2.21734150 2
   4.67746650    0.00000000    2.21734150 2
   4.67746650    3.11831100    2.21734150 2
   7.79577750    0.00000000    2.21734150 2
   7.79577750    3.11831100    2.21734150 2
   0.00531870    1.55987010    4.41991710 2
   0.00620000    4.67832990    4.42719290 2
   3.11734330    1.55994490    4.43660560 2
   3.11751020    4.67818500    4.44245880 2
   6.22983140    1.55995350    4.42029700 2
   6.22768100    4.67819940    4.42927320 2
   1.54987200    0.01038930    6.66089170 2
   1.54989930    3.11111970    6.66082310 2
   4.67705400    0.01173830    6.66325450 2
   4.67674840    3.10875430    6.66327630 2
   7.79169160    0.00862610    6.59215330 2
   7.79170900    3.11240310    6.59204890 2
  -0.04591870    1.56135990    8.85207770 2
  -0.04873180    4.67963390    8.80706140 2
   3.09699940    1.56106940    8.93969330 2
   3.12217110    4.67917250    8.81700870 2
   6.26457750    1.56075320    8.84988940 2
   6.27978670    4.67918460    8.80346650 2
   0.79289900    1.55919600   -0.70000000 3
  -0.90452600    1.55914300   -0.70000000 3
   0.87543500    4.67746100   -0.70000000 3
  -0.82520000    4.67745700   -0.70000000 3
   3.91123500    1.55915500   -0.70000000 3
   2.21388900    1.55909500   -0.70000000 3
   3.99394100    4.67746400   -0.70000000 3
   2.29330300    4.67744400   -0.70000000 3
   7.02960600    1.55915400   -0.70000000 3
   5.33218600    1.55915100   -0.70000000 3
   7.11239100    4.67746100   -0.70000000 3
   5.41177000    4.67745900   -0.70000000 3
%endblock AtomicCoordinatesAndAtomicSpecies
##########################################################
SaveTotalPotential .true.
SaveElectrostaticPotential .true.
SaveRho .true.
SaveDeltarho .true.
************************** End of input data file *****************************

reinit: -----------------------------------------------------------------------
reinit: System Name: H-SiC surface
reinit: -----------------------------------------------------------------------
reinit: System Label: sic-slab                                                    
reinit: -----------------------------------------------------------------------

initatom: Reading input for the pseudopotentials and atomic orbitals ----------
 Species number:            1  Label: Si.pbe Atomic number:          14
 Species number:            2  Label: C.pbe Atomic number:           6
 Species number:            3  Label: H.pbe Atomic number:           1
Ground state valence configuration:   3s02  3p02
Reading pseudopotential information in formatted form from Si.pbe.psf

Valence configuration for pseudopotential generation:
3s( 2.00) rc: 1.89
3p( 2.00) rc: 1.89
3d( 0.00) rc: 1.89
4f( 0.00) rc: 1.89
Ground state valence configuration:   2s02  2p02
Reading pseudopotential information in formatted form from C.pbe.psf

Valence configuration for pseudopotential generation:
2s( 2.00) rc: 1.49
2p( 2.00) rc: 1.52
3d( 0.00) rc: 1.52
Ground state valence configuration:   1s01
Reading pseudopotential information in formatted form from H.pbe.psf

Valence configuration for pseudopotential generation:
1s( 1.00) rc: 1.43
2p( 0.00) rc: 1.25
3d( 0.00) rc: 1.25
4f( 0.00) rc: 1.25
For Si.pbe, standard SIESTA heuristics set lmxkb to 2
 (one more than the basis l, including polarization orbitals).
Use PS.lmax or PS.KBprojectors blocks to override.
For C.pbe, standard SIESTA heuristics set lmxkb to 2
 (one more than the basis l, including polarization orbitals).
Use PS.lmax or PS.KBprojectors blocks to override.
For H.pbe, standard SIESTA heuristics set lmxkb to 2
 (one more than the basis l, including polarization orbitals).
Use PS.lmax or PS.KBprojectors blocks to override.

<basis_specs>
===============================================================================
Si.pbe               Z=  14    Mass=  28.090        Charge= 0.33050    
Lmxo=1 Lmxkb= 2    BasisType=split      Semic=F
L=0  Nsemic=0  Cnfigmx=3
          n=1  nzeta=1  polorb=0
            splnorm:   0.15000    
               vcte:    175.72    
               rinn:    6.2327    
                rcs:    6.2845    
            lambdas:    1.0000    
L=1  Nsemic=0  Cnfigmx=3
          n=1  nzeta=1  polorb=0
            splnorm:   0.15000    
               vcte:    27.011    
               rinn:    6.3612    
                rcs:    7.4564    
            lambdas:    1.0000    
-------------------------------------------------------------------------------
L=0  Nkbl=1  erefs: 0.17977+309
L=1  Nkbl=1  erefs: 0.17977+309
L=2  Nkbl=1  erefs: 0.17977+309
===============================================================================
</basis_specs>

atom: Called for Si.pbe                (Z =  14)

read_vps: Pseudopotential generation method:
read_vps: ATM3      Troullier-Martins                       
Total valence charge:    4.00000

xc_check: Exchange-correlation functional:
xc_check: GGA Perdew, Burke & Ernzerhof 1996
V l=0 = -2*Zval/r beyond r=  2.7826
V l=1 = -2*Zval/r beyond r=  2.7826
V l=2 = -2*Zval/r beyond r=  2.7826
All V_l potentials equal beyond r=  1.8652
This should be close to max(r_c) in ps generation
All pots = -2*Zval/r beyond r=  2.7826
Using large-core scheme for Vlocal

atom: Estimated core radius    2.78258

atom: Including non-local core corrections could be a good idea
atom: Maximum radius for 4*pi*r*r*local-pseudopot. charge    3.07525
atom: Maximum radius for r*vlocal+2*Zval:    2.81758
GHOST: No ghost state for L =  0
GHOST: No ghost state for L =  1
GHOST: No ghost state for L =  2

KBgen: Kleinman-Bylander projectors: 
   l= 0   rc=  1.936440   el= -0.791474   Ekb=  4.527346   kbcos=  0.300929
   l= 1   rc=  1.936440   el= -0.300649   Ekb=  1.471620   kbcos=  0.304055
   l= 2   rc=  1.936440   el=  0.001958   Ekb= -2.865202   kbcos= -0.050894

KBgen: Total number of  Kleinman-Bylander projectors:    9
atom: -------------------------------------------------------------------------

atom: SANKEY-TYPE ORBITALS:

atom: basis set generated (by rescaling the valence charge)
atom: for a cation of charge   0.3305

SPLIT: Orbitals with angular momentum L= 0

SPLIT: Basis orbitals for state 3s

   izeta = 1
                 lambda =    1.000000
                     rc =    6.270866
                 energy =   -1.030900
                kinetic =    0.542146
    potential(screened) =   -1.573046
       potential(ionic) =   -3.777459

SPLIT: Orbitals with angular momentum L= 1

SPLIT: Basis orbitals for state 3p

   izeta = 1
                 lambda =    1.000000
                     rc =    7.470179
                 energy =   -0.513956
                kinetic =    0.889669
    potential(screened) =   -1.403625
       potential(ionic) =   -3.442715
atom: Total number of Sankey-type orbitals:  4

atm_pop: Valence configuration (for local Pseudopot. screening):
 3s( 2.00)                                                            
 3p( 2.00)                                                            
Vna: chval, zval:    4.00000   4.00000

Vna:  Cut-off radius for the neutral-atom potential:   7.470179

atom: _________________________________________________________________________

<basis_specs>
===============================================================================
C.pbe                Z=   6    Mass=  12.010        Charge=-0.20340    
Lmxo=1 Lmxkb= 2    BasisType=split      Semic=F
L=0  Nsemic=0  Cnfigmx=2
          n=1  nzeta=1  polorb=0
            splnorm:   0.15000    
               vcte:    166.60    
               rinn:    6.0853    
                rcs:    6.1031    
            lambdas:    1.0000    
L=1  Nsemic=0  Cnfigmx=2
          n=1  nzeta=1  polorb=0
            splnorm:   0.15000    
               vcte:    92.896    
               rinn:    8.1457    
                rcs:    8.2107    
            lambdas:    1.0000    
-------------------------------------------------------------------------------
L=0  Nkbl=1  erefs: 0.17977+309
L=1  Nkbl=1  erefs: 0.17977+309
L=2  Nkbl=1  erefs: 0.17977+309
===============================================================================
</basis_specs>

atom: Called for C.pbe                 (Z =   6)

read_vps: Pseudopotential generation method:
read_vps: ATM 3.2.2 Troullier-Martins                       
Total valence charge:    4.00000

read_vps: Pseudopotential includes a core correction:
read_vps: Pseudo-core for xc-correction

xc_check: Exchange-correlation functional:
xc_check: GGA Perdew, Burke & Ernzerhof 1996
V l=0 = -2*Zval/r beyond r=  1.4666
V l=1 = -2*Zval/r beyond r=  1.5038
V l=2 = -2*Zval/r beyond r=  1.5038
All V_l potentials equal beyond r=  1.5038
This should be close to max(r_c) in ps generation
All pots = -2*Zval/r beyond r=  1.5038

VLOCAL1: 99.0% of the norm of Vloc inside     19.196 Ry
VLOCAL1: 99.9% of the norm of Vloc inside     43.748 Ry
atom: Maximum radius for 4*pi*r*r*local-pseudopot. charge    1.81396
atom: Maximum radius for r*vlocal+2*Zval:    1.56123
GHOST: No ghost state for L =  0
GHOST: No ghost state for L =  1
GHOST: No ghost state for L =  2

KBgen: Kleinman-Bylander projectors: 
   l= 0   rc=  1.682861   el= -1.009802   Ekb=  5.530688   kbcos=  0.309203
   l= 1   rc=  1.682861   el= -0.388707   Ekb= -3.901042   kbcos= -0.358653
   l= 2   rc=  1.769164   el=  0.001971   Ekb= -0.965319   kbcos= -0.008918

KBgen: Total number of  Kleinman-Bylander projectors:    9
atom: -------------------------------------------------------------------------

atom: SANKEY-TYPE ORBITALS:

atom: basis set generated (by rescaling the valence charge)
atom: for an anion of charge  -0.2034

SPLIT: Orbitals with angular momentum L= 0

SPLIT: Basis orbitals for state 2s

   izeta = 1
                 lambda =    1.000000
                     rc =    6.099293
                 energy =   -1.008072
                kinetic =    0.786791
    potential(screened) =   -1.794863
       potential(ionic) =   -5.296547

SPLIT: Orbitals with angular momentum L= 1

SPLIT: Basis orbitals for state 2p

   izeta = 1
                 lambda =    1.000000
                     rc =    8.233328
                 energy =   -0.384246
                kinetic =    2.061715
    potential(screened) =   -2.445961
       potential(ionic) =   -5.701979
atom: Total number of Sankey-type orbitals:  4

atm_pop: Valence configuration (for local Pseudopot. screening):
 2s( 2.00)                                                            
 2p( 2.00)                                                            
Vna: chval, zval:    4.00000   4.00000

Vna:  Cut-off radius for the neutral-atom potential:   8.233328
comcore: Pseudo-core radius Rcore=  1.791422

atom: _________________________________________________________________________

<basis_specs>
===============================================================================
H.pbe                Z=   1    Mass=  1.0100        Charge= 0.17977+309
Lmxo=0 Lmxkb= 2    BasisType=split      Semic=F
L=0  Nsemic=0  Cnfigmx=1
          n=1  nzeta=2  polorb=1
            splnorm:   0.15000    
               vcte:    0.0000    
               rinn:    0.0000    
                rcs:    0.0000      0.0000    
            lambdas:    1.0000      1.0000    
-------------------------------------------------------------------------------
L=0  Nkbl=1  erefs: 0.17977+309
L=1  Nkbl=1  erefs: 0.17977+309
L=2  Nkbl=1  erefs: 0.17977+309
===============================================================================
</basis_specs>

atom: Called for H.pbe                 (Z =   1)

read_vps: Pseudopotential generation method:
read_vps: ATM 3.2.2 Troullier-Martins                       
Total valence charge:    1.00000

xc_check: Exchange-correlation functional:
xc_check: GGA Perdew, Burke & Ernzerhof 1996
V l=0 = -2*Zval/r beyond r=  1.4166
V l=1 = -2*Zval/r beyond r=  1.3816
V l=2 = -2*Zval/r beyond r=  1.3816
All V_l potentials equal beyond r=  1.4166
This should be close to max(r_c) in ps generation
All pots = -2*Zval/r beyond r=  1.4166

VLOCAL1: 99.0% of the norm of Vloc inside     21.631 Ry
VLOCAL1: 99.9% of the norm of Vloc inside     49.298 Ry
atom: Maximum radius for 4*pi*r*r*local-pseudopot. charge    1.66698
atom: Maximum radius for r*vlocal+2*Zval:    1.39896
GHOST: No ghost state for L =  0
GHOST: No ghost state for L =  1
GHOST: No ghost state for L =  2

KBgen: Kleinman-Bylander projectors: 
   l= 0   rc=  1.565833   el= -0.477200   Ekb= -1.851072   kbcos= -0.391986
   l= 1   rc=  1.646243   el=  0.001076   Ekb= -0.560969   kbcos= -0.025747
   l= 2   rc=  1.687980   el=  0.002010   Ekb= -0.184546   kbcos= -0.003662

KBgen: Total number of  Kleinman-Bylander projectors:    9
atom: -------------------------------------------------------------------------

atom: SANKEY-TYPE ORBITALS:
atom: Selected multiple-zeta basis: split     

SPLIT: Orbitals with angular momentum L= 0

SPLIT: Basis orbitals for state 1s

SPLIT: PAO cut-off radius determined from an
SPLIT: energy shift=  0.020000 Ry

   izeta = 1
                 lambda =    1.000000
                     rc =    4.708991
                 energy =   -0.457754
                kinetic =    0.969078
    potential(screened) =   -1.426832
       potential(ionic) =   -1.954497

   izeta = 2
                 rmatch =    3.759707
              splitnorm =    0.150000
                 energy =   -0.338955
                kinetic =    1.561908
    potential(screened) =   -1.900862
       potential(ionic) =   -2.450466

POLgen: Perturbative polarization orbital with L=  1

POLgen: Polarization orbital for state 1s

   izeta = 1
                     rc =    4.708991
                 energy =    0.764844
                kinetic =    1.483543
    potential(screened) =   -0.718699
       potential(ionic) =   -1.210766
atom: Total number of Sankey-type orbitals:  5

atm_pop: Valence configuration (for local Pseudopot. screening):
 1s( 1.00)                                                            
Vna: chval, zval:    1.00000   1.00000

Vna:  Cut-off radius for the neutral-atom potential:   4.708991

atom: _________________________________________________________________________

prinput: Basis input ----------------------------------------------------------

PAO.BasisType split     

%block ChemicalSpeciesLabel
    1   14 Si.pbe                  # Species index, atomic number, species label
    2    6 C.pbe                   # Species index, atomic number, species label
    3    1 H.pbe                   # Species index, atomic number, species label
%endblock ChemicalSpeciesLabel

%block PAO.Basis                 # Define Basis set
Si.pbe                2   0.331            # Label, l-shells, ionic net charge
 n=3   0   1                         # n, l, Nzeta 
   6.271   
   1.000   
 n=3   1   1                         # n, l, Nzeta 
   7.470   
   1.000   
C.pbe                 2  -0.203            # Label, l-shells, ionic net charge
 n=2   0   1                         # n, l, Nzeta 
   6.099   
   1.000   
 n=2   1   1                         # n, l, Nzeta 
   8.233   
   1.000   
H.pbe                 1                    # Species label, number of l-shells
 n=1   0   2 P   1                   # n, l, Nzeta, Polarization, NzetaPol
   4.709      3.760   
   1.000      1.000   
%endblock PAO.Basis

prinput: ----------------------------------------------------------------------

Dumping basis to NetCDF file Si.pbe.ion.nc
Dumping basis to NetCDF file C.pbe.ion.nc
Dumping basis to NetCDF file H.pbe.ion.nc
coor:   Atomic-coordinates input format  =     Cartesian coordinates
coor:                                          (in Angstroms)

siesta: WARNING: XV file not found

siesta: Atomic coordinates (Bohr) and species
siesta:      0.00000   0.00000   2.09509  1        1
siesta:      0.00000   5.89276   2.09509  1        2
siesta:      5.89276   0.00000   2.09509  1        3
siesta:      5.89276   5.89276   2.09509  1        4
siesta:     11.78551   0.00000   2.09509  1        5
siesta:     11.78551   5.89276   2.09509  1        6
siesta:      2.94638   2.94638   6.28526  1        7
siesta:      2.94638   8.83913   6.28526  1        8
siesta:      8.83913   2.94638   6.28526  1        9
siesta:      8.83913   8.83913   6.28526  1       10
siesta:     14.73189   2.94638   6.28526  1       11
siesta:     14.73189   8.83913   6.28526  1       12
siesta:      0.01943   0.01257  10.43700  1       13
siesta:      0.02005   5.88412  10.43697  1       14
siesta:      5.88572   0.01041  10.49451  1       15
siesta:      5.88522   5.88634  10.49450  1       16
siesta:     11.75273   0.01516  10.44056  1       17
siesta:     11.75272   5.88124  10.44112  1       18
siesta:      2.90539   2.94969  14.73251  1       19
siesta:      2.90852   8.84266  14.65932  1       20
siesta:      8.83599   2.94881  14.74497  1       21
siesta:      8.86576   8.84141  14.65814  1       22
siesta:     14.72584   2.94923  14.52925  1       23
siesta:     14.73445   8.84167  14.47460  1       24
siesta:     -0.62892  -0.02525  18.75121  1       25
siesta:     -0.62820   5.92728  18.75163  1       26
siesta:      5.82977  -0.10334  18.88184  1       27
siesta:      5.82928   6.00228  18.88149  1       28
siesta:     12.43800  -0.02041  18.71654  1       29
siesta:     12.43847   5.92012  18.71732  1       30
siesta:      2.50006  -0.59770  21.88324  1       31
siesta:      9.31040  -0.64211  21.82872  1       32
siesta:      2.50034   6.50121  21.88319  1       33
siesta:      9.30982   6.53825  21.82891  1       34
siesta:      3.17909   2.95107  24.80650  1       35
siesta:      7.42712   2.94828  23.66212  1       36
siesta:      0.00000   2.94638   0.00000  2       37
siesta:      0.00000   8.83913   0.00000  2       38
siesta:      5.89276   2.94638   0.00000  2       39
siesta:      5.89276   8.83913   0.00000  2       40
siesta:     11.78551   2.94638   0.00000  2       41
siesta:     11.78551   8.83913   0.00000  2       42
siesta:      2.94638   0.00000   4.19017  2       43
siesta:      2.94638   5.89276   4.19017  2       44
siesta:      8.83913   0.00000   4.19017  2       45
siesta:      8.83913   5.89276   4.19017  2       46
siesta:     14.73189   0.00000   4.19017  2       47
siesta:     14.73189   5.89276   4.19017  2       48
siesta:      0.01005   2.94773   8.35244  2       49
siesta:      0.01172   8.84077   8.36619  2       50
siesta:      5.89093   2.94787   8.38397  2       51
siesta:      5.89124   8.84049   8.39503  2       52
siesta:     11.77268   2.94789   8.35315  2       53
siesta:     11.76862   8.84052   8.37012  2       54
siesta:      2.92883   0.01963  12.58727  2       55
siesta:      2.92889   5.87917  12.58714  2       56
siesta:      8.83835   0.02218  12.59173  2       57
siesta:      8.83778   5.87470  12.59177  2       58
siesta:     14.72417   0.01630  12.45737  2       59
siesta:     14.72420   5.88159  12.45717  2       60
siesta:     -0.08677   2.95054  16.72801  2       61
siesta:     -0.09209   8.84323  16.64294  2       62
siesta:      5.85248   2.94999  16.89358  2       63
siesta:      5.90005   8.84236  16.66174  2       64
siesta:     11.83834   2.94940  16.72387  2       65
siesta:     11.86708   8.84238  16.63615  2       66
siesta:      1.49836   2.94645  -1.32281  3       67
siesta:     -1.70931   2.94635  -1.32281  3       68
siesta:      1.65433   8.83912  -1.32281  3       69
siesta:     -1.55940   8.83912  -1.32281  3       70
siesta:      7.39117   2.94638  -1.32281  3       71
siesta:      4.18365   2.94626  -1.32281  3       72
siesta:      7.54746   8.83913  -1.32281  3       73
siesta:      4.33372   8.83909  -1.32281  3       74
siesta:     13.28404   2.94638  -1.32281  3       75
siesta:     10.07638   2.94637  -1.32281  3       76
siesta:     13.44048   8.83912  -1.32281  3       77
siesta:     10.22677   8.83912  -1.32281  3       78

siesta: System type = slab      

initatomlists: Number of atoms, orbitals, and projectors:     78   324   702

siesta: ******************** Simulation parameters ****************************
siesta:
siesta: The following are some of the parameters of the simulation.
siesta: A complete list of the parameters used, including default values,
siesta: can be found in file out.fdf
siesta:
redata: Non-Collinear-spin run           =     F
redata: SpinPolarized (Up/Down) run      =     F
redata: Number of spin components        =     1
redata: Long output                      =     F
redata: Number of Atomic Species         =        3
redata: Charge density info will appear in .RHO file
redata: Write Mulliken Pop.              =     NO
redata: Mesh Cutoff                      =   150.0000  Ry
redata: Net charge of the system         =    -1.0000 |e|
redata: Max. number of SCF Iter          =     1000
redata: Performing Pulay mixing using    =     3 iterations
redata: Mix DM in first SCF step ?       =     T
redata: Write Pulay info on disk?        =     F
redata: Discard 1st Pulay DM after  kick =     F
redata: New DM Mixing Weight             =     0.0100
redata: New DM Occupancy tolerance       = 0.000000000001
redata: No kicks to SCF
redata: DM Mixing Weight for Kicks       =     0.5000
redata: DM Tolerance for SCF             =     0.001000
redata: Require Energy convergence for SCF =     F
redata: DM Energy tolerance for SCF      =     0.000100 eV
redata: Require Harris convergence for SCF =     F
redata: DM Harris energy tolerance for SCF =     0.000100 eV
redata: Using Saved Data (generic)   =     T
redata: Use continuation files for DM    =     T
redata: Neglect nonoverlap interactions  =     F
redata: Method of Calculation            =     Diagonalization
redata: Divide and Conquer               =     F
redata: Electronic Temperature           =     0.0019  Ry
redata: Fix the spin of the system       =     F
redata: Dynamics option                  =     CG coord. optimization
redata: Variable cell                    =     F
redata: Use continuation files for CG    =     T
redata: Max atomic displ per move        =     0.2000  Bohr
redata: Maximum number of CG moves       =        0
redata: Force tolerance                  =     0.0016  Ry/Bohr
redata: ***********************************************************************
Total number of electrons:   277.000000
Total ionic charge:   276.000000
madelung: WARNING: Charged system, but not an atom or molecule.
madelung: WARNING: Energy correction terms can not be applied. 
madelung: WARNING: Continue only if you really know what you are doing.

* ProcessorY, Blocksize:    2  24

k-point displ. along   3 input, could be:     0.50    0.00
 Kpoints in:            2 . Kpoints trimmed:            2

siesta: k-grid: Number of k-points =     2
siesta: k-grid: Cutoff (effective) =     6.237 Ang
siesta: k-grid: Supercell and displacements
siesta: k-grid:    2   0   0      0.500
siesta: k-grid:    0   2   0      0.500
siesta: k-grid:    0   0   1      0.500
Naive supercell factors:     3    4    1

superc: Internal auxiliary supercell:     3 x     4 x     1  =      12
superc: Number of atoms, orbitals, and projectors:    936   3888   8424

* Maximum dynamic memory allocated =     3 MB

siesta:                 ==============================
                            Begin CG move =      0
                        ==============================

superc: Internal auxiliary supercell:     3 x     4 x     1  =      12
superc: Number of atoms, orbitals, and projectors:    936   3888   8424

outcell: Unit cell vectors (Ang):
        9.354933    0.000000    0.000000
        0.000000    6.236622    0.000000
        0.000000    0.000000   26.460000

outcell: Cell vector modules (Ang)   :    9.354933    6.236622   26.460000
outcell: Cell angles (23,13,12) (deg):     90.0000     90.0000     90.0000
outcell: Cell volume (Ang**3)        :   1543.7606
New_DM. Step:     1
Initializing Density Matrix...

InitMesh: MESH =    72 x    48 x   200 =      691200
InitMesh: Mesh cutoff (required, used) =   150.000   157.900 Ry

doping: SimulateDoping = .true. in input file
doping: Neutralizing background will be added to points
doping: other than vacuum, to simulate doping

efield: SlabDipoleCorrection = .true. in input file
efield: A dipole layer will be introduced in the vacuum
efield: region to compensate the system dipole
Dipole moment in unit cell   =      0.0000     -0.0000      1.8475 D
Electric field for dipole correction =   -0.000000    0.000000   -0.001754 Ry/Bohr/e

* Maximum dynamic memory allocated =   108 MB

stepf: Fermi-Dirac step function

siesta: Program's energy decomposition (eV):
siesta: Ebs     =     -3840.063933
siesta: Eions   =     14694.110283
siesta: Ena     =      3895.775417
siesta: Ekin    =      3900.433705
siesta: Enl     =       741.280612
siesta: DEna    =       -18.708474
siesta: DUscf   =         0.033660
siesta: DUext   =         0.017342
siesta: Exc     =     -2742.912273
siesta: eta*DQ  =         0.000000
siesta: Emadel  =         0.000000
siesta: Emeta   =         0.000000
siesta: Emolmec =         0.000000
siesta: Ekinion =         0.000000
siesta: Eharris =     -8823.697910
siesta: Etot    =     -8918.190293
siesta: FreeEng =     -8918.190293

siesta: iscf   Eharris(eV)      E_KS(eV)   FreeEng(eV)   dDmax  Ef(eV)
siesta:    1    -8823.6979    -8918.1903    -8918.1903  1.7460 -3.8236
timer: Routine,Calls,Time,% = IterSCF        1      57.361  93.15
elaps: Routine,Calls,Wall,% = IterSCF        1      14.376  92.43
Dipole moment in unit cell   =      0.0000     -0.0000      1.6331 D
Electric field for dipole correction =   -0.000000    0.000000   -0.001550 Ry/Bohr/e
siesta:    2    -8819.1670    -8917.2319    -8917.2678  1.7213 -3.7851
Dipole moment in unit cell   =     -0.0000      0.0000     -8.9550 D
Electric field for dipole correction =    0.000000   -0.000000    0.008500 Ry/Bohr/e
siesta:    3    -8727.4559    -8812.0475    -8812.0833  0.7790 -2.2578
Dipole moment in unit cell   =     -0.0000      0.0000     -7.6536 D
Electric field for dipole correction =    0.000000   -0.000000    0.007264 Ry/Bohr/e
siesta:    4    -8724.8332    -8819.9531    -8819.9933  0.7319 -2.1632
Dipole moment in unit cell   =     -0.0000      0.0000     -7.9430 D
Electric field for dipole correction =    0.000000   -0.000000    0.007539 Ry/Bohr/e
siesta:    5    -8726.4630    -8808.5505    -8808.5889  0.7456 -2.1291
Dipole moment in unit cell   =     -0.0000      0.0000     -8.0595 D
Electric field for dipole correction =    0.000000   -0.000000    0.007650 Ry/Bohr/e
siesta:    6    -8731.4821    -8782.1462    -8782.1840  0.7387 -2.1671
Dipole moment in unit cell   =     -0.0000      0.0000     -4.2692 D
Electric field for dipole correction =    0.000000   -0.000000    0.004052 Ry/Bohr/e
siesta:    7    -8724.9859    -8764.0850    -8764.1209  0.4667 -3.1162
Dipole moment in unit cell   =     -0.0000      0.0000     -0.5960 D
Electric field for dipole correction =    0.000000   -0.000000    0.000566 Ry/Bohr/e
siesta:    8    -8727.7464    -8730.3960    -8730.4319  0.3534 -4.0871
Dipole moment in unit cell   =     -0.0000      0.0000     -1.2412 D
Electric field for dipole correction =    0.000000   -0.000000    0.001178 Ry/Bohr/e
siesta:    9    -8727.8849    -8721.0651    -8721.1009  0.3380 -3.9551
Dipole moment in unit cell   =     -0.0000      0.0000     -2.1660 D
Electric field for dipole correction =    0.000000   -0.000000    0.002056 Ry/Bohr/e
siesta:   10    -8727.9839    -8711.1055    -8711.1414  0.3105 -3.7515
Dipole moment in unit cell   =     -0.0000      0.0000     -8.0090 D
Electric field for dipole correction =    0.000000   -0.000000    0.007602 Ry/Bohr/e
siesta:   11    -8722.3247    -8711.4697    -8711.5055  0.0733 -2.2404
Dipole moment in unit cell   =     -0.0000      0.0000     -8.2832 D
Electric field for dipole correction =    0.000000   -0.000000    0.007862 Ry/Bohr/e
siesta:   12    -8722.2865    -8711.4472    -8711.4831  0.0992 -2.1872
Dipole moment in unit cell   =     -0.0000      0.0000     -8.2264 D
Electric field for dipole correction =    0.000000   -0.000000    0.007808 Ry/Bohr/e
siesta:   13    -8722.2804    -8711.5307    -8711.5669  0.0738 -2.1979
Dipole moment in unit cell   =     -0.0000      0.0000     -8.2837 D
Electric field for dipole correction =    0.000000   -0.000000    0.007862 Ry/Bohr/e
siesta:   14    -8722.2240    -8712.2629    -8712.2989  0.0728 -2.1970
Dipole moment in unit cell   =     -0.0000      0.0000     -8.2053 D
Electric field for dipole correction =    0.000000   -0.000000    0.007788 Ry/Bohr/e
siesta:   15    -8722.2141    -8712.7387    -8712.7747  0.0705 -2.2215
Dipole moment in unit cell   =     -0.0000      0.0000     -8.0258 D
Electric field for dipole correction =    0.000000   -0.000000    0.007618 Ry/Bohr/e
siesta:   16    -8722.1860    -8712.9695    -8713.0054  0.0664 -2.2640
Dipole moment in unit cell   =     -0.0000      0.0000     -7.8261 D
Electric field for dipole correction =    0.000000   -0.000000    0.007428 Ry/Bohr/e
siesta:   17    -8722.1639    -8713.2056    -8713.2414  0.0673 -2.3106
Dipole moment in unit cell   =     -0.0000      0.0000     -7.6658 D
Electric field for dipole correction =    0.000000   -0.000000    0.007276 Ry/Bohr/e
siesta:   18    -8722.1644    -8713.4008    -8713.4367  0.0659 -2.3441
Dipole moment in unit cell   =     -0.0000      0.0000     -7.7325 D
Electric field for dipole correction =    0.000000   -0.000000    0.007339 Ry/Bohr/e
siesta:   19    -8722.1593    -8713.3992    -8713.4350  0.0651 -2.3283
Dipole moment in unit cell   =     -0.0000      0.0000     -8.1697 D
Electric field for dipole correction =    0.000000   -0.000000    0.007754 Ry/Bohr/e
siesta:   20    -8722.1401    -8714.2329    -8714.2687  0.0627 -2.2183
Dipole moment in unit cell   =     -0.0000      0.0000     -7.9486 D
Electric field for dipole correction =    0.000000   -0.000000    0.007544 Ry/Bohr/e
siesta:   21    -8722.1392    -8714.0200    -8714.0560  0.0502 -2.2713
Dipole moment in unit cell   =     -0.0000      0.0000     -8.3295 D
Electric field for dipole correction =    0.000000   -0.000000    0.007906 Ry/Bohr/e
siesta:   22    -8722.1368    -8716.3266    -8716.3625  0.1512 -2.1911
Dipole moment in unit cell   =     -0.0000      0.0000     -7.5775 D
Electric field for dipole correction =    0.000000   -0.000000    0.007192 Ry/Bohr/e
siesta:   23    -8722.1268    -8717.4683    -8717.5045  0.0300 -2.3751
Dipole moment in unit cell   =     -0.0000      0.0000     -7.6194 D
Electric field for dipole correction =    0.000000   -0.000000    0.007232 Ry/Bohr/e
siesta:   24    -8722.1270    -8717.7140    -8717.7498  0.0331 -2.3634
Dipole moment in unit cell   =     -0.0000      0.0000     -7.6781 D
Electric field for dipole correction =    0.000000   -0.000000    0.007288 Ry/Bohr/e
siesta:   25    -8722.1244    -8717.8415    -8717.8774  0.0333 -2.3470
Dipole moment in unit cell   =     -0.0000      0.0000     -7.8070 D
Electric field for dipole correction =    0.000000   -0.000000    0.007410 Ry/Bohr/e
siesta:   26    -8722.1144    -8717.8805    -8717.9163  0.0264 -2.3107
Dipole moment in unit cell   =     -0.0000      0.0000     -7.7893 D
Electric field for dipole correction =    0.000000   -0.000000    0.007393 Ry/Bohr/e
siesta:   27    -8722.1102    -8717.7242    -8717.7600  0.0192 -2.3147
Dipole moment in unit cell   =     -0.0000      0.0000     -7.7729 D
Electric field for dipole correction =    0.000000   -0.000000    0.007378 Ry/Bohr/e
siesta:   28    -8722.1073    -8717.6498    -8717.6856  0.0189 -2.3182
Dipole moment in unit cell   =     -0.0000      0.0000     -7.7394 D
Electric field for dipole correction =    0.000000   -0.000000    0.007346 Ry/Bohr/e
siesta:   29    -8722.0985    -8720.0963    -8720.1322  0.0121 -2.3203
Dipole moment in unit cell   =     -0.0000      0.0000     -7.7281 D
Electric field for dipole correction =    0.000000   -0.000000    0.007335 Ry/Bohr/e
siesta:   30    -8722.0986    -8720.3033    -8720.3392  0.0121 -2.3231
Dipole moment in unit cell   =     -0.0000      0.0000     -7.6909 D
Electric field for dipole correction =    0.000000   -0.000000    0.007300 Ry/Bohr/e
siesta:   31    -8722.0996    -8720.5583    -8720.5941  0.0107 -2.3334
Dipole moment in unit cell   =     -0.0000      0.0000     -7.6745 D
Electric field for dipole correction =    0.000000   -0.000000    0.007284 Ry/Bohr/e
siesta:   32    -8722.1002    -8720.5142    -8720.5500  0.0093 -2.3380
Dipole moment in unit cell   =     -0.0000      0.0000     -7.6497 D
Electric field for dipole correction =    0.000000   -0.000000    0.007261 Ry/Bohr/e
siesta:   33    -8722.1010    -8720.3535    -8720.3893  0.0071 -2.3450
Dipole moment in unit cell   =     -0.0000      0.0000     -7.6438 D
Electric field for dipole correction =    0.000000   -0.000000    0.007255 Ry/Bohr/e
siesta:   34    -8722.1010    -8720.2947    -8720.3306  0.0062 -2.3464
Dipole moment in unit cell   =     -0.0000      0.0000     -7.6418 D
Electric field for dipole correction =    0.000000   -0.000000    0.007253 Ry/Bohr/e
siesta:   35    -8722.1008    -8720.3076    -8720.3435  0.0052 -2.3465
Dipole moment in unit cell   =     -0.0000      0.0000     -7.6421 D
Electric field for dipole correction =    0.000000   -0.000000    0.007253 Ry/Bohr/e
siesta:   36    -8722.1008    -8720.4431    -8720.4790  0.0050 -2.3458
Dipole moment in unit cell   =     -0.0000      0.0000     -7.6379 D
Electric field for dipole correction =    0.000000   -0.000000    0.007249 Ry/Bohr/e
siesta:   37    -8722.1009    -8720.5815    -8720.6173  0.0052 -2.3466
Dipole moment in unit cell   =     -0.0000      0.0000     -7.6231 D
Electric field for dipole correction =    0.000000   -0.000000    0.007235 Ry/Bohr/e
siesta:   38    -8722.1014    -8720.7355    -8720.7713  0.0049 -2.3505
Dipole moment in unit cell   =     -0.0000      0.0000     -7.6148 D
Electric field for dipole correction =    0.000000   -0.000000    0.007227 Ry/Bohr/e
siesta:   39    -8722.1017    -8720.7579    -8720.7937  0.0047 -2.3528
Dipole moment in unit cell   =     -0.0000      0.0000     -7.5973 D
Electric field for dipole correction =    0.000000   -0.000000    0.007211 Ry/Bohr/e
siesta:   40    -8722.1024    -8720.6913    -8720.7271  0.0050 -2.3575
Dipole moment in unit cell   =     -0.0000      0.0000     -7.5946 D
Electric field for dipole correction =    0.000000   -0.000000    0.007208 Ry/Bohr/e
siesta:   41    -8722.1024    -8720.6761    -8720.7119  0.0048 -2.3582
Dipole moment in unit cell   =     -0.0000      0.0000     -7.5947 D
Electric field for dipole correction =    0.000000   -0.000000    0.007208 Ry/Bohr/e
siesta:   42    -8722.1023    -8720.6695    -8720.7053  0.0040 -2.3576
Dipole moment in unit cell   =     -0.0000      0.0000     -7.5949 D
Electric field for dipole correction =    0.000000   -0.000000    0.007209 Ry/Bohr/e
siesta:   43    -8722.1023    -8720.6947    -8720.7305  0.0040 -2.3574
Dipole moment in unit cell   =     -0.0000      0.0000     -7.5942 D
Electric field for dipole correction =    0.000000   -0.000000    0.007208 Ry/Bohr/e
siesta:   44    -8722.1022    -8720.8813    -8720.9171  0.0030 -2.3569
Dipole moment in unit cell   =     -0.0000      0.0000     -7.5916 D
Electric field for dipole correction =    0.000000   -0.000000    0.007206 Ry/Bohr/e
siesta:   45    -8722.1023    -8720.9257    -8720.9615  0.0027 -2.3576
Dipole moment in unit cell   =     -0.0000      0.0000     -7.5794 D
Electric field for dipole correction =    0.000000   -0.000000    0.007194 Ry/Bohr/e
siesta:   46    -8722.1028    -8721.0142    -8721.0500  0.0028 -2.3609
Dipole moment in unit cell   =     -0.0000      0.0000     -7.5768 D
Electric field for dipole correction =    0.000000   -0.000000    0.007191 Ry/Bohr/e
siesta:   47    -8722.1029    -8721.0146    -8721.0504  0.0029 -2.3616
Dipole moment in unit cell   =     -0.0000      0.0000     -7.5726 D
Electric field for dipole correction =    0.000000   -0.000000    0.007187 Ry/Bohr/e
siesta:   48    -8722.1031    -8720.9742    -8721.0100  0.0030 -2.3627
Dipole moment in unit cell   =     -0.0000      0.0000     -7.5733 D
Electric field for dipole correction =    0.000000   -0.000000    0.007188 Ry/Bohr/e
siesta:   49    -8722.1030    -8720.9654    -8721.0012  0.0028 -2.3624
Dipole moment in unit cell   =     -0.0000      0.0000     -7.5769 D
Electric field for dipole correction =    0.000000   -0.000000    0.007192 Ry/Bohr/e
siesta:   50    -8722.1028    -8720.9745    -8721.0104  0.0028 -2.3611
Dipole moment in unit cell   =     -0.0000      0.0000     -7.5779 D
Electric field for dipole correction =    0.000000   -0.000000    0.007192 Ry/Bohr/e
siesta:   51    -8722.1028    -8721.0075    -8721.0434  0.0027 -2.3607
Dipole moment in unit cell   =     -0.0000      0.0000     -7.5765 D
Electric field for dipole correction =    0.000000   -0.000000    0.007191 Ry/Bohr/e
siesta:   52    -8722.1028    -8721.0746    -8721.1104  0.0024 -2.3610
Dipole moment in unit cell   =     -0.0000      0.0000     -7.5725 D
Electric field for dipole correction =    0.000000   -0.000000    0.007187 Ry/Bohr/e
siesta:   53    -8722.1030    -8721.1231    -8721.1590  0.0020 -2.3620
Dipole moment in unit cell   =     -0.0000      0.0000     -7.5687 D
Electric field for dipole correction =    0.000000   -0.000000    0.007184 Ry/Bohr/e
siesta:   54    -8722.1032    -8721.1479    -8721.1838  0.0020 -2.3630
Dipole moment in unit cell   =     -0.0000      0.0000     -7.5658 D
Electric field for dipole correction =    0.000000   -0.000000    0.007181 Ry/Bohr/e
siesta:   55    -8722.1033    -8721.1438    -8721.1796  0.0023 -2.3638
Dipole moment in unit cell   =     -0.0000      0.0000     -7.5658 D
Electric field for dipole correction =    0.000000   -0.000000    0.007181 Ry/Bohr/e
siesta:   56    -8722.1033    -8721.1370    -8721.1728  0.0023 -2.3637
Dipole moment in unit cell   =     -0.0000      0.0000     -7.5695 D
Electric field for dipole correction =    0.000000   -0.000000    0.007184 Ry/Bohr/e
siesta:   57    -8722.1031    -8721.1293    -8721.1652  0.0023 -2.3626
Dipole moment in unit cell   =     -0.0000      0.0000     -7.5704 D
Electric field for dipole correction =    0.000000   -0.000000    0.007185 Ry/Bohr/e
siesta:   58    -8722.1031    -8721.1397    -8721.1756  0.0023 -2.3622
Dipole moment in unit cell   =     -0.0000      0.0000     -7.5697 D
Electric field for dipole correction =    0.000000   -0.000000    0.007185 Ry/Bohr/e
siesta:   59    -8722.1031    -8721.2147    -8721.2505  0.0022 -2.3622
Dipole moment in unit cell   =     -0.0000      0.0000     -7.5683 D
Electric field for dipole correction =    0.000000   -0.000000    0.007183 Ry/Bohr/e
siesta:   60    -8722.1031    -8721.2403    -8721.2761  0.0020 -2.3625
Dipole moment in unit cell   =     -0.0000      0.0000     -7.5601 D
Electric field for dipole correction =    0.000000   -0.000000    0.007176 Ry/Bohr/e
siesta:   61    -8722.1035    -8721.3281    -8721.3640  0.0016 -2.3647
Dipole moment in unit cell   =     -0.0000      0.0000     -7.5593 D
Electric field for dipole correction =    0.000000   -0.000000    0.007175 Ry/Bohr/e
siesta:   62    -8722.1035    -8721.3405    -8721.3764  0.0015 -2.3649
Dipole moment in unit cell   =     -0.0000      0.0000     -7.5608 D
Electric field for dipole correction =    0.000000   -0.000000    0.007176 Ry/Bohr/e
siesta:   63    -8722.1035    -8721.3624    -8721.3982  0.0016 -2.3643
Dipole moment in unit cell   =     -0.0000      0.0000     -7.5616 D
Electric field for dipole correction =    0.000000   -0.000000    0.007177 Ry/Bohr/e
siesta:   64    -8722.1034    -8721.3651    -8721.4009  0.0016 -2.3640
Dipole moment in unit cell   =     -0.0000      0.0000     -7.5668 D
Electric field for dipole correction =    0.000000   -0.000000    0.007182 Ry/Bohr/e
siesta:   65    -8722.1032    -8721.3754    -8721.4112  0.0016 -2.3624
Dipole moment in unit cell   =     -0.0000      0.0000     -7.5665 D
Electric field for dipole correction =    0.000000   -0.000000    0.007182 Ry/Bohr/e
siesta:   66    -8722.1032    -8721.3826    -8721.4185  0.0017 -2.3624
Dipole moment in unit cell   =     -0.0000      0.0000     -7.5606 D
Electric field for dipole correction =    0.000000   -0.000000    0.007176 Ry/Bohr/e
siesta:   67    -8722.1034    -8721.4343    -8721.4701  0.0017 -2.3640
Dipole moment in unit cell   =     -0.0000      0.0000     -7.5595 D
Electric field for dipole correction =    0.000000   -0.000000    0.007175 Ry/Bohr/e
siesta:   68    -8722.1035    -8721.4469    -8721.4827  0.0016 -2.3643
Dipole moment in unit cell   =     -0.0000      0.0000     -7.5558 D
Electric field for dipole correction =    0.000000   -0.000000    0.007172 Ry/Bohr/e
siesta:   69    -8722.1036    -8721.5069    -8721.5427  0.0012 -2.3653
Dipole moment in unit cell   =     -0.0000      0.0000     -7.5562 D
Electric field for dipole correction =    0.000000   -0.000000    0.007172 Ry/Bohr/e
siesta:   70    -8722.1036    -8721.5168    -8721.5526  0.0011 -2.3651
Dipole moment in unit cell   =     -0.0000      0.0000     -7.5604 D
Electric field for dipole correction =    0.000000   -0.000000    0.007176 Ry/Bohr/e
siesta:   71    -8722.1035    -8721.5345    -8721.5703  0.0010 -2.3638
Dipole moment in unit cell   =     -0.0000      0.0000     -7.5617 D
Electric field for dipole correction =    0.000000   -0.000000    0.007177 Ry/Bohr/e

siesta: E_KS(eV) =            -8721.5349

siesta: E_KS - E_eggbox =     -8721.5349

siesta: Atomic forces (eV/Ang):
----------------------------------------
   Tot   -0.001642    0.003571   -0.326906
----------------------------------------
   Max    2.413271
   Res    0.556868    sqrt( Sum f_i^2 / 3N )
----------------------------------------
   Max    2.413271    constrained

Stress-tensor-Voigt (kbar):      -77.51      -70.47      -65.42       -0.01        0.19        2.46
(Free)E + p*V (eV/cell)    -8653.0336
Target enthalpy (eV/cell)    -8721.5707

* Maximum dynamic memory allocated =   113 MB

siesta: Program's energy decomposition (eV):
siesta: Ebs     =     -3426.822787
siesta: Eions   =     14694.110283
siesta: Ena     =      3895.775417
siesta: Ekin    =      4993.163121
siesta: Enl     =       132.743333
siesta: DEna    =      -260.569032
siesta: DUscf   =        63.616345
siesta: DUext   =         0.290511
siesta: Exc     =     -2852.444314
siesta: eta*DQ  =         0.000000
siesta: Emadel  =         0.000000
siesta: Emeta   =         0.000000
siesta: Emolmec =         0.000000
siesta: Ekinion =         0.000000
siesta: Eharris =     -8722.103471
siesta: Etot    =     -8721.534903
siesta: FreeEng =     -8721.570740

siesta: Final energy (eV):
siesta:  Band Struct. =   -3426.822787
siesta:       Kinetic =    4993.163121
siesta:       Hartree =   66137.482861
siesta:    Ext. field =       0.290511
siesta:   Exch.-corr. =   -2852.444314
siesta:  Ion-electron = -137038.862124
siesta:       Ion-ion =   60038.835042
siesta:       Ekinion =       0.000000
siesta:         Total =   -8721.534903

siesta: Atomic forces (eV/Ang):
siesta:      1    0.006410    0.002135   -0.560337
siesta:      2    0.006160   -0.001268   -0.560336
siesta:      3    0.001369    0.002390   -0.561784
siesta:      4    0.001470   -0.001425   -0.561783
siesta:      5   -0.003395    0.000430   -0.559194
siesta:      6   -0.003455    0.000520   -0.559045
siesta:      7    0.151455    0.004070    0.235209
siesta:      8    0.157924    0.006169    0.330247
siesta:      9   -0.185381    0.006309    0.243531
siesta:     10   -0.178901    0.004234    0.330274
siesta:     11   -0.017151    0.005932    0.336194
siesta:     12   -0.037263    0.004431    0.455683
siesta:     13   -0.050736    0.016363    0.569672
siesta:     14   -0.061042   -0.022146    0.567543
siesta:     15   -0.001507    0.003664    0.677903
siesta:     16    0.005588   -0.012117    0.676729
siesta:     17    0.035453   -0.003044    0.571541
siesta:     18    0.031835   -0.002522    0.563545
siesta:     19    0.191439   -0.002209    0.811896
siesta:     20    0.224058   -0.005467    0.860096
siesta:     21   -0.230555   -0.000709    0.810249
siesta:     22   -0.139756    0.000611    0.873627
siesta:     23   -0.043757    0.000180    0.067630
siesta:     24   -0.013579    0.003109    0.087562
siesta:     25   -0.012911    0.081740    1.079128
siesta:     26   -0.017777   -0.096625    1.075221
siesta:     27    0.286848   -0.019768    0.730034
siesta:     28    0.288607    0.027308    0.735617
siesta:     29   -0.042538    0.076363    1.249876
siesta:     30   -0.044059   -0.085489    1.242260
siesta:     31   -0.356642   -0.265122    0.090644
siesta:     32    0.014332    0.086503    0.174447
siesta:     33   -0.353520    0.257681    0.096520
siesta:     34    0.016237   -0.080642    0.170972
siesta:     35   -0.706722    0.002129    1.673311
siesta:     36    1.053245   -0.000259    1.389506
siesta:     37   -2.413271    0.000010    0.323676
siesta:     38    1.082557   -0.000022    0.050682
siesta:     39   -2.409837   -0.000172    0.318404
siesta:     40    1.089891    0.000005    0.046001
siesta:     41   -2.409020   -0.000001    0.323197
siesta:     42    1.097558   -0.000019    0.050788
siesta:     43    0.039817   -0.000187   -0.427465
siesta:     44    0.039351    0.000886   -0.427056
siesta:     45   -0.034254    0.000529   -0.426781
siesta:     46   -0.034232    0.000148   -0.427262
siesta:     47    0.000116   -0.000873   -0.422560
siesta:     48    0.000501    0.001596   -0.422675
siesta:     49   -0.041128    0.003382   -0.537185
siesta:     50   -0.026509   -0.001237   -0.506629
siesta:     51    0.004453    0.001169   -0.509230
siesta:     52   -0.004678    0.002939   -0.496791
siesta:     53    0.016647    0.000811   -0.530647
siesta:     54    0.041599   -0.000483   -0.522095
siesta:     55   -0.058662    0.013866   -0.748446
siesta:     56   -0.059003   -0.012822   -0.743133
siesta:     57    0.088016   -0.002897   -0.746324
siesta:     58    0.092793    0.006808   -0.747518
siesta:     59    0.018024    0.001071   -0.726896
siesta:     60    0.021461   -0.003411   -0.725600
siesta:     61   -0.192259    0.002817   -0.850612
siesta:     62   -0.207917    0.001841   -0.846359
siesta:     63    0.244292   -0.009494   -0.934824
siesta:     64   -0.344820   -0.000622   -0.965792
siesta:     65    0.216538    0.007004   -0.899179
siesta:     66    0.251710   -0.003243   -0.820944
siesta:     67    1.571556   -0.000121   -1.174381
siesta:     68    0.806397    0.000050    0.802777
siesta:     69   -0.264552    0.000081    0.385798
siesta:     70   -0.797639    0.000031   -0.492213
siesta:     71    1.569805    0.000072   -1.175910
siesta:     72    0.806200    0.000335    0.801582
siesta:     73   -0.270013    0.000037    0.387360
siesta:     74   -0.801448    0.000041   -0.496932
siesta:     75    1.570280    0.000040   -1.173665
siesta:     76    0.804944    0.000042    0.802589
siesta:     77   -0.272119    0.000063    0.390131
siesta:     78   -0.806574    0.000044   -0.498976
siesta: ----------------------------------------
siesta:    Tot   -0.001642    0.003571   -0.326906

siesta: Stress tensor (static) (eV/Ang**3):
siesta:    -0.048377   -0.000005    0.001534
siesta:    -0.000005   -0.043983    0.000121
siesta:     0.001534    0.000121   -0.040829

siesta: Cell volume =       1543.760568 Ang**3

siesta: Pressure (static):
siesta:                Solid            Molecule  Units
siesta:           0.00048353          0.00031873  Ry/Bohr**3
siesta:           0.04439624          0.02926442  eV/Ang**3
siesta:          71.13138963         46.88727128  kBar
(Free)E+ p_basis*V_orbitals  =       -8682.380715
(Free)Eharris+ p_basis*V_orbitals  =       -8682.949696

siesta: Electric dipole (a.u.)  =   -0.000000    0.000000   -2.975006
siesta: Electric dipole (Debye) =   -0.000000    0.000000   -7.561717
Dipole moment in unit cell   =     -0.0000      0.0000     -7.5617 D
Electric field for dipole correction =    0.000000   -0.000000    0.007177 Ry/Bohr/e

* Maximum dynamic memory allocated : Node    0 =   113 MB
* Maximum dynamic memory allocated : Node    1 =    48 MB
* Maximum dynamic memory allocated : Node    2 =   111 MB
* Maximum dynamic memory allocated : Node    3 =    47 MB

* Maximum memory occured during redistribXZ                   

timer: CPU execution times:
timer:  Routine       Calls   Time/call    Tot.time        %
timer:  siesta            1    2932.215    2932.215   100.00
timer:  Setup             1       2.971       2.971     0.10
timer:  bands             1       0.000       0.000     0.00
timer:  writewave         1       0.008       0.008     0.00
timer:  KSV_init          1       0.004       0.004     0.00
timer:  IterMD            1    2906.750    2906.750    99.13
timer:  hsparse           1       0.351       0.351     0.01
timer:  overlap           1       0.309       0.309     0.01
timer:  IterSCF          71      39.013    2769.927    94.47
timer:  kinefsm           2       0.187       0.373     0.01
timer:  nlefsm            2       4.023       8.046     0.27
timer:  DHSCF            73      36.758    2683.370    91.51
timer:  DHSCF1            1       0.430       0.430     0.01
timer:  DHSCF2            1      15.201      15.201     0.52
timer:  REORD           740       0.002       1.231     0.04
timer:  POISON           74       0.225      16.642     0.57
timer:  DHSCF3           73      35.840    2616.286    89.23
timer:  rhoofd           73       9.351     682.625    23.28
timer:  cellXC           73       2.538     185.251     6.32
timer:  vmat             72      15.175    1092.619    37.26
timer:  MolMec            2       0.000       0.000     0.00
timer:  diagon           71       2.147     152.402     5.20
timer:  c-eigval        142       0.379      53.881     1.84
timer:  c-buildHS       142       0.016       2.314     0.08
timer:  cdiag           284       0.405     115.066     3.92
timer:  cdiag1          284       0.026       7.244     0.25
timer:  cdiag2          284       0.110      31.187     1.06
timer:  cdiag3          284       0.241      68.482     2.34
timer:  cdiag4          284       0.016       4.481     0.15
timer:  c-eigvec        142       0.463      65.800     2.24
timer:  c-buildD        142       0.229      32.464     1.11
timer:  DHSCF4            1      51.107      51.107     1.74
timer:  dfscf             1      48.516      48.516     1.65
timer:  overfsm           1       0.083       0.083     0.00
timer:  optical           1       0.099       0.099     0.00
  

elaps: ELAPSED times:
elaps:  Routine       Calls   Time/call    Tot.time        %
elaps:  siesta            1     735.629     735.629   100.00
elaps:  Setup             1       0.832       0.832     0.11
elaps:  bands             1       0.001       0.001     0.00
elaps:  writewave         1       0.002       0.002     0.00
elaps:  KSV_init          1       0.000       0.000     0.00
elaps:  IterMD            1     729.096     729.096    99.11
elaps:  hsparse           1       0.095       0.095     0.01
elaps:  overlap           1       0.090       0.090     0.01
elaps:  IterSCF          71       9.787     694.855    94.46
elaps:  kinefsm           2       0.054       0.108     0.01
elaps:  nlefsm            2       1.038       2.077     0.28
elaps:  DHSCF            73       9.328     680.918    92.56
elaps:  DHSCF1            1       0.110       0.110     0.01
elaps:  DHSCF2            1       3.800       3.800     0.52
elaps:  REORD           740       0.000       0.290     0.04
elaps:  POISON           74       0.056       4.139     0.56
elaps:  DHSCF3           73       8.963     654.332    88.95
elaps:  rhoofd           73       4.144     302.514    41.12
elaps:  cellXC           73       0.634      46.310     6.30
elaps:  vmat             72       3.795     273.231    37.14
elaps:  MolMec            2       0.000       0.000     0.00
elaps:  diagon           71       0.538      38.200     5.19
elaps:  c-eigval        142       0.095      13.468     1.83
elaps:  c-buildHS       142       0.005       0.666     0.09
elaps:  cdiag           284       0.100      28.538     3.88
elaps:  cdiag1          284       0.006       1.765     0.24
elaps:  cdiag2          284       0.027       7.790     1.06
elaps:  cdiag3          284       0.060      17.134     2.33
elaps:  cdiag4          284       0.004       1.167     0.16
elaps:  c-eigvec        142       0.115      16.391     2.23
elaps:  c-buildD        142       0.058       8.254     1.12
elaps:  DHSCF4            1      22.589      22.589     3.07
elaps:  dfscf             1      21.600      21.600     2.94
elaps:  overfsm           1       0.023       0.023     0.00
elaps:  optical           1       0.001       0.001     0.00
  
>> End of run:  24-MAR-2013  18:43:17
