Siesta Version: siesta-3.2
Architecture  : SIESTA_ARCH
Compiler flags: FFLAGS
PARALLEL version
NetCDF support

* Running on    4 nodes in parallel
>> Start of run:  24-MAR-2013  18:44:15

                           ***********************       
                           *  WELCOME TO SIESTA  *       
                           ***********************       

reinit: Reading from standard input
************************** Dump of input data file ****************************
# -----------------------------------------------------------------------------
# FDF for interstitial H in a cubic c-Si supercell with 64 atoms
#
# E. Artacho, April 1999
# -----------------------------------------------------------------------------
SystemName          H in 64-atom silicon
SystemLabel         sih
NumberOfAtoms       65
NumberOfSpecies     2
%block ChemicalSpeciesLabel
 1  14  Si
 2   1  H
%endblock ChemicalSpeciesLabel
PAO.BasisSize       SZ
PAO.EnergyShift     300 meV
%block PAO.Basis
  H  1
  0  1
  0.
  0.8
%endblock PAO.Basis
LatticeConstant     5.430 Ang
%block LatticeVectors
  2.000  0.000  0.000
  0.000  2.000  0.000
  0.000  0.000  2.000
%endblock LatticeVectors
MeshCutoff          40.0 Ry
MaxSCFIterations    50
DM.MixingWeight      0.3
DM.NumberPulay       4
DM.Tolerance         1.d-3
DM.UseSaveDM
SolutionMethod       diagon
ElectronicTemperature  25 meV
MD.TypeOfRun         cg
MD.NumCGsteps        50
MD.MaxCGDispl         0.1  Ang
MD.MaxForceTol        0.04 eV/Ang
AtomicCoordinatesFormat  ScaledCartesian
%block AtomicCoordinatesAndAtomicSpecies
    0.000    0.000    0.000   1 #  Si  1
    0.250    0.250    0.250   1 #  Si  2
    0.000    0.500    0.500   1 #  Si  3
    0.250    0.750    0.750   1 #  Si  4
    0.500    0.000    0.500   1 #  Si  5
    0.750    0.250    0.750   1 #  Si  6
    0.500    0.500    0.000   1 #  Si  7
    0.750    0.750    0.250   1 #  Si  8
    1.000    0.000    0.000   1 #  Si  9
    1.250    0.250    0.250   1 #  Si 10
    1.000    0.500    0.500   1 #  Si 11
    1.250    0.750    0.750   1 #  Si 12
    1.500    0.000    0.500   1 #  Si 13
    1.750    0.250    0.750   1 #  Si 14
    1.500    0.500    0.000   1 #  Si 15
    1.750    0.750    0.250   1 #  Si 16
    0.000    1.000    0.000   1 #  Si 17
    0.250    1.250    0.250   1 #  Si 18
    0.000    1.500    0.500   1 #  Si 19
    0.250    1.750    0.750   1 #  Si 20
    0.500    1.000    0.500   1 #  Si 21
    0.750    1.250    0.750   1 #  Si 22
    0.500    1.500    0.000   1 #  Si 23
    0.750    1.750    0.250   1 #  Si 24
    0.000    0.000    1.000   1 #  Si 25
    0.250    0.250    1.250   1 #  Si 26
    0.000    0.500    1.500   1 #  Si 27
    0.250    0.750    1.750   1 #  Si 28
    0.500    0.000    1.500   1 #  Si 29
    0.750    0.250    1.750   1 #  Si 30
    0.500    0.500    1.000   1 #  Si 31
    0.750    0.750    1.250   1 #  Si 32
    1.000    1.000    0.000   1 #  Si 33
    1.250    1.250    0.250   1 #  Si 34
    1.000    1.500    0.500   1 #  Si 35
    1.250    1.750    0.750   1 #  Si 36
    1.500    1.000    0.500   1 #  Si 37
    1.750    1.250    0.750   1 #  Si 38
    1.500    1.500    0.000   1 #  Si 39
    1.750    1.750    0.250   1 #  Si 40
    1.000    0.000    1.000   1 #  Si 41
    1.250    0.250    1.250   1 #  Si 42
    1.000    0.500    1.500   1 #  Si 43
    1.250    0.750    1.750   1 #  Si 44
    1.500    0.000    1.500   1 #  Si 45
    1.750    0.250    1.750   1 #  Si 46
    1.500    0.500    1.000   1 #  Si 47
    1.750    0.750    1.250   1 #  Si 48
    0.000    1.000    1.000   1 #  Si 49
    0.250    1.250    1.250   1 #  Si 50
    0.000    1.500    1.500   1 #  Si 51
    0.250    1.750    1.750   1 #  Si 52
    0.500    1.000    1.500   1 #  Si 53
    0.750    1.250    1.750   1 #  Si 54
    0.500    1.500    1.000   1 #  Si 55
    0.750    1.750    1.250   1 #  Si 56
    1.000    1.000    1.000   1 #  Si 57
    1.250    1.250    1.250   1 #  Si 58
    1.000    1.500    1.500   1 #  Si 59
    1.250    1.750    1.750   1 #  Si 60
    1.500    1.000    1.500   1 #  Si 61
    1.750    1.250    1.750   1 #  Si 62
    1.500    1.500    1.000   1 #  Si 63
    1.750    1.750    1.250   1 #  Si 64
    1.125    1.125    1.125   2 #  H  65
%endblock AtomicCoordinatesAndAtomicSpecies
************************** End of input data file *****************************

reinit: -----------------------------------------------------------------------
reinit: System Name: H in 64-atom silicon
reinit: -----------------------------------------------------------------------
reinit: System Label: sih                                                         
reinit: -----------------------------------------------------------------------

initatom: Reading input for the pseudopotentials and atomic orbitals ----------
 Species number:            1  Label: Si Atomic number:          14
 Species number:            2  Label: H Atomic number:           1
Ground state valence configuration:   3s02  3p02
Reading pseudopotential information in formatted form from Si.psf

Valence configuration for pseudopotential generation:
3s( 2.00) rc: 1.89
3p( 2.00) rc: 1.89
3d( 0.00) rc: 1.89
4f( 0.00) rc: 1.89
Ground state valence configuration:   1s01
Reading pseudopotential information in formatted form from H.psf

Valence configuration for pseudopotential generation:
1s( 1.00) rc: 1.25
2p( 0.00) rc: 1.25
3d( 0.00) rc: 1.25
4f( 0.00) rc: 1.25
For Si, standard SIESTA heuristics set lmxkb to 2
 (one more than the basis l, including polarization orbitals).
Use PS.lmax or PS.KBprojectors blocks to override.
For H, standard SIESTA heuristics set lmxkb to 1
 (one more than the basis l, including polarization orbitals).
Use PS.lmax or PS.KBprojectors blocks to override.

<basis_specs>
===============================================================================
Si                   Z=  14    Mass=  28.090        Charge= 0.17977+309
Lmxo=1 Lmxkb= 2    BasisType=split      Semic=F
L=0  Nsemic=0  Cnfigmx=3
          n=1  nzeta=1  polorb=0
            splnorm:   0.15000    
               vcte:    0.0000    
               rinn:    0.0000    
                rcs:    0.0000    
            lambdas:    1.0000    
L=1  Nsemic=0  Cnfigmx=3
          n=1  nzeta=1  polorb=0
            splnorm:   0.15000    
               vcte:    0.0000    
               rinn:    0.0000    
                rcs:    0.0000    
            lambdas:    1.0000    
-------------------------------------------------------------------------------
L=0  Nkbl=1  erefs: 0.17977+309
L=1  Nkbl=1  erefs: 0.17977+309
L=2  Nkbl=1  erefs: 0.17977+309
===============================================================================
</basis_specs>

atom: Called for Si                    (Z =  14)

read_vps: Pseudopotential generation method:
read_vps: ATM3      Troullier-Martins                       
Total valence charge:    4.00000

xc_check: Exchange-correlation functional:
xc_check: Ceperley-Alder
V l=0 = -2*Zval/r beyond r=  2.5494
V l=1 = -2*Zval/r beyond r=  2.5494
V l=2 = -2*Zval/r beyond r=  2.5494
All V_l potentials equal beyond r=  1.8652
This should be close to max(r_c) in ps generation
All pots = -2*Zval/r beyond r=  2.5494
Using large-core scheme for Vlocal

atom: Estimated core radius    2.54944

atom: Including non-local core corrections could be a good idea
atom: Maximum radius for 4*pi*r*r*local-pseudopot. charge    2.85303
atom: Maximum radius for r*vlocal+2*Zval:    2.58151
GHOST: No ghost state for L =  0
GHOST: No ghost state for L =  1
GHOST: No ghost state for L =  2

KBgen: Kleinman-Bylander projectors: 
   l= 0   rc=  1.936440   el= -0.796617   Ekb=  4.661340   kbcos=  0.299756
   l= 1   rc=  1.936440   el= -0.307040   Ekb=  1.494238   kbcos=  0.301471
   l= 2   rc=  1.936440   el=  0.002313   Ekb= -2.808672   kbcos= -0.054903

KBgen: Total number of  Kleinman-Bylander projectors:    9
atom: -------------------------------------------------------------------------

atom: SANKEY-TYPE ORBITALS:

SPLIT: Orbitals with angular momentum L= 0

SPLIT: Basis orbitals for state 3s

SPLIT: PAO cut-off radius determined from an
SPLIT: energy shift=  0.022049 Ry

   izeta = 1
                 lambda =    1.000000
                     rc =    4.883716
                 energy =   -0.773554
                kinetic =    0.585471
    potential(screened) =   -1.359025
       potential(ionic) =   -3.840954

SPLIT: Orbitals with angular momentum L= 1

SPLIT: Basis orbitals for state 3p

SPLIT: PAO cut-off radius determined from an
SPLIT: energy shift=  0.022049 Ry

   izeta = 1
                 lambda =    1.000000
                     rc =    6.116033
                 energy =   -0.285742
                kinetic =    0.892202
    potential(screened) =   -1.177944
       potential(ionic) =   -3.446720
atom: Total number of Sankey-type orbitals:  4

atm_pop: Valence configuration (for local Pseudopot. screening):
 3s( 2.00)                                                            
 3p( 2.00)                                                            
Vna: chval, zval:    4.00000   4.00000

Vna:  Cut-off radius for the neutral-atom potential:   6.116033

atom: _________________________________________________________________________

<basis_specs>
===============================================================================
H                    Z=   1    Mass=  1.0100        Charge= 0.17977+309
Lmxo=0 Lmxkb= 1    BasisType=split      Semic=F
L=0  Nsemic=0  Cnfigmx=1
          n=1  nzeta=1  polorb=0
            splnorm:   0.15000    
               vcte:    0.0000    
               rinn:    0.0000    
                rcs:    0.0000    
            lambdas:   0.80000    
-------------------------------------------------------------------------------
L=0  Nkbl=1  erefs: 0.17977+309
L=1  Nkbl=1  erefs: 0.17977+309
===============================================================================
</basis_specs>

atom: Called for H                     (Z =   1)

read_vps: Pseudopotential generation method:
read_vps: ATM3      Troullier-Martins                       
Total valence charge:    1.00000

xc_check: Exchange-correlation functional:
xc_check: Ceperley-Alder
V l=0 = -2*Zval/r beyond r=  1.2343
V l=1 = -2*Zval/r beyond r=  1.2189
All V_l potentials equal beyond r=  1.2343
This should be close to max(r_c) in ps generation
All pots = -2*Zval/r beyond r=  1.2343

VLOCAL1: 99.0% of the norm of Vloc inside     28.493 Ry
VLOCAL1: 99.9% of the norm of Vloc inside     64.935 Ry
atom: Maximum radius for 4*pi*r*r*local-pseudopot. charge    1.45251
atom: Maximum radius for r*vlocal+2*Zval:    1.21892
GHOST: No ghost state for L =  0
GHOST: No ghost state for L =  1

KBgen: Kleinman-Bylander projectors: 
   l= 0   rc=  1.364359   el= -0.467325   Ekb= -2.005361   kbcos= -0.336422
   l= 1   rc=  1.434438   el=  0.001430   Ekb= -0.501708   kbcos= -0.021697

KBgen: Total number of  Kleinman-Bylander projectors:    4
atom: -------------------------------------------------------------------------

atom: SANKEY-TYPE ORBITALS:

SPLIT: Orbitals with angular momentum L= 0

SPLIT: Basis orbitals for state 1s

SPLIT: PAO cut-off radius determined from an
SPLIT: energy shift=  0.022049 Ry

   izeta = 1
                 lambda =    0.800000
                     rc =    4.718242
                 energy =   -0.396561
                kinetic =    1.341628
    potential(screened) =   -1.738188
       potential(ionic) =   -2.295884
atom: Total number of Sankey-type orbitals:  1

atm_pop: Valence configuration (for local Pseudopot. screening):
 1s( 1.00)                                                            
Vna: chval, zval:    1.00000   1.00000

Vna:  Cut-off radius for the neutral-atom potential:   4.708991

atom: _________________________________________________________________________

prinput: Basis input ----------------------------------------------------------

PAO.BasisType split     

%block ChemicalSpeciesLabel
    1   14 Si                      # Species index, atomic number, species label
    2    1 H                       # Species index, atomic number, species label
%endblock ChemicalSpeciesLabel

%block PAO.Basis                 # Define Basis set
Si                    2                    # Species label, number of l-shells
 n=3   0   1                         # n, l, Nzeta 
   4.884   
   1.000   
 n=3   1   1                         # n, l, Nzeta 
   6.116   
   1.000   
H                     1                    # Species label, number of l-shells
 n=1   0   1                         # n, l, Nzeta 
   4.718   
   0.800   
%endblock PAO.Basis

prinput: ----------------------------------------------------------------------

Dumping basis to NetCDF file Si.ion.nc
Dumping basis to NetCDF file H.ion.nc
coor:   Atomic-coordinates input format  =     Cartesian coordinates
coor:                                          (in units of alat)

siesta: Atomic coordinates (Bohr) and species
siesta:      0.00000   0.00000   0.00000  1        1
siesta:      2.56530   2.56530   2.56530  1        2
siesta:      0.00000   5.13061   5.13061  1        3
siesta:      2.56530   7.69591   7.69591  1        4
siesta:      5.13061   0.00000   5.13061  1        5
siesta:      7.69591   2.56530   7.69591  1        6
siesta:      5.13061   5.13061   0.00000  1        7
siesta:      7.69591   7.69591   2.56530  1        8
siesta:     10.26122   0.00000   0.00000  1        9
siesta:     12.82652   2.56530   2.56530  1       10
siesta:     10.26122   5.13061   5.13061  1       11
siesta:     12.82652   7.69591   7.69591  1       12
siesta:     15.39183   0.00000   5.13061  1       13
siesta:     17.95713   2.56530   7.69591  1       14
siesta:     15.39183   5.13061   0.00000  1       15
siesta:     17.95713   7.69591   2.56530  1       16
siesta:      0.00000  10.26122   0.00000  1       17
siesta:      2.56530  12.82652   2.56530  1       18
siesta:      0.00000  15.39183   5.13061  1       19
siesta:      2.56530  17.95713   7.69591  1       20
siesta:      5.13061  10.26122   5.13061  1       21
siesta:      7.69591  12.82652   7.69591  1       22
siesta:      5.13061  15.39183   0.00000  1       23
siesta:      7.69591  17.95713   2.56530  1       24
siesta:      0.00000   0.00000  10.26122  1       25
siesta:      2.56530   2.56530  12.82652  1       26
siesta:      0.00000   5.13061  15.39183  1       27
siesta:      2.56530   7.69591  17.95713  1       28
siesta:      5.13061   0.00000  15.39183  1       29
siesta:      7.69591   2.56530  17.95713  1       30
siesta:      5.13061   5.13061  10.26122  1       31
siesta:      7.69591   7.69591  12.82652  1       32
siesta:     10.26122  10.26122   0.00000  1       33
siesta:     12.82652  12.82652   2.56530  1       34
siesta:     10.26122  15.39183   5.13061  1       35
siesta:     12.82652  17.95713   7.69591  1       36
siesta:     15.39183  10.26122   5.13061  1       37
siesta:     17.95713  12.82652   7.69591  1       38
siesta:     15.39183  15.39183   0.00000  1       39
siesta:     17.95713  17.95713   2.56530  1       40
siesta:     10.26122   0.00000  10.26122  1       41
siesta:     12.82652   2.56530  12.82652  1       42
siesta:     10.26122   5.13061  15.39183  1       43
siesta:     12.82652   7.69591  17.95713  1       44
siesta:     15.39183   0.00000  15.39183  1       45
siesta:     17.95713   2.56530  17.95713  1       46
siesta:     15.39183   5.13061  10.26122  1       47
siesta:     17.95713   7.69591  12.82652  1       48
siesta:      0.00000  10.26122  10.26122  1       49
siesta:      2.56530  12.82652  12.82652  1       50
siesta:      0.00000  15.39183  15.39183  1       51
siesta:      2.56530  17.95713  17.95713  1       52
siesta:      5.13061  10.26122  15.39183  1       53
siesta:      7.69591  12.82652  17.95713  1       54
siesta:      5.13061  15.39183  10.26122  1       55
siesta:      7.69591  17.95713  12.82652  1       56
siesta:     10.26122  10.26122  10.26122  1       57
siesta:     12.82652  12.82652  12.82652  1       58
siesta:     10.26122  15.39183  15.39183  1       59
siesta:     12.82652  17.95713  17.95713  1       60
siesta:     15.39183  10.26122  15.39183  1       61
siesta:     17.95713  12.82652  17.95713  1       62
siesta:     15.39183  15.39183  10.26122  1       63
siesta:     17.95713  17.95713  12.82652  1       64
siesta:     11.54387  11.54387  11.54387  2       65

siesta: System type = bulk      

initatomlists: Number of atoms, orbitals, and projectors:     65   257   580

siesta: ******************** Simulation parameters ****************************
siesta:
siesta: The following are some of the parameters of the simulation.
siesta: A complete list of the parameters used, including default values,
siesta: can be found in file out.fdf
siesta:
redata: Non-Collinear-spin run           =     F
redata: SpinPolarized (Up/Down) run      =     F
redata: Number of spin components        =     1
redata: Long output                      =     F
redata: Number of Atomic Species         =        2
redata: Charge density info will appear in .RHO file
redata: Write Mulliken Pop.              =     NO
redata: Mesh Cutoff                      =    40.0000  Ry
redata: Net charge of the system         =     0.0000 |e|
redata: Max. number of SCF Iter          =       50
redata: Performing Pulay mixing using    =     4 iterations
redata: Mix DM in first SCF step ?       =     F
redata: Write Pulay info on disk?        =     F
redata: Discard 1st Pulay DM after  kick =     F
redata: New DM Mixing Weight             =     0.3000
redata: New DM Occupancy tolerance       = 0.000000000001
redata: No kicks to SCF
redata: DM Mixing Weight for Kicks       =     0.5000
redata: DM Tolerance for SCF             =     0.001000
redata: Require Energy convergence for SCF =     F
redata: DM Energy tolerance for SCF      =     0.000100 eV
redata: Require Harris convergence for SCF =     F
redata: DM Harris energy tolerance for SCF =     0.000100 eV
redata: Using Saved Data (generic)   =     F
redata: Use continuation files for DM    =     T
redata: Neglect nonoverlap interactions  =     F
redata: Method of Calculation            =     Diagonalization
redata: Divide and Conquer               =     T
redata: Electronic Temperature           =     0.0018  Ry
redata: Fix the spin of the system       =     F
redata: Dynamics option                  =     CG coord. optimization
redata: Variable cell                    =     F
redata: Use continuation files for CG    =     F
redata: Max atomic displ per move        =     0.1890  Bohr
redata: Maximum number of CG moves       =       50
redata: Force tolerance                  =     0.0016  Ry/Bohr
redata: ***********************************************************************
Total number of electrons:   257.000000
Total ionic charge:   257.000000

* ProcessorY, Blocksize:    2  24

 Kpoints in:            1 . Kpoints trimmed:            1

siesta: k-grid: Number of k-points =     1
siesta: k-grid: Cutoff (effective) =     5.430 Ang
siesta: k-grid: Supercell and displacements
siesta: k-grid:    1   0   0      0.000
siesta: k-grid:    0   1   0      0.000
siesta: k-grid:    0   0   1      0.000

* Maximum dynamic memory allocated =     2 MB

siesta:                 ==============================
                            Begin CG move =      0
                        ==============================

outcell: Unit cell vectors (Ang):
       10.860000    0.000000    0.000000
        0.000000   10.860000    0.000000
        0.000000    0.000000   10.860000

outcell: Cell vector modules (Ang)   :   10.860000   10.860000   10.860000
outcell: Cell angles (23,13,12) (deg):     90.0000     90.0000     90.0000
outcell: Cell volume (Ang**3)        :   1280.8241
 Folding of H and S is implicitly performed
New_DM. Step:     1
Initializing Density Matrix...

InitMesh: MESH =    48 x    48 x    48 =      110592
InitMesh: Mesh cutoff (required, used) =    40.000    53.991 Ry

* Maximum dynamic memory allocated =     9 MB

stepf: Fermi-Dirac step function

siesta: Program's energy decomposition (eV):
siesta: Ebs     =     -2348.063651
siesta: Eions   =     12205.375277
siesta: Ena     =      3677.554544
siesta: Ekin    =      2591.199431
siesta: Enl     =      1150.368409
siesta: DEna    =         0.000011
siesta: DUscf   =         0.000000
siesta: DUext   =         0.000000
siesta: Exc     =     -2083.290198
siesta: eta*DQ  =         0.000000
siesta: Emadel  =         0.000000
siesta: Emeta   =         0.000000
siesta: Emolmec =         0.000000
siesta: Ekinion =         0.000000
siesta: Eharris =     -6847.408202
siesta: Etot    =     -6869.543081
siesta: FreeEng =     -6869.543081

siesta: iscf   Eharris(eV)      E_KS(eV)   FreeEng(eV)   dDmax  Ef(eV)
siesta:    1    -6847.4082    -6869.5431    -6869.5431  1.0410 -2.0995
timer: Routine,Calls,Time,% = IterSCF        1       1.925  60.10
elaps: Routine,Calls,Wall,% = IterSCF        1       0.491  60.25
siesta:    2    -6848.5321    -6844.5897    -6844.6524  0.7386 -3.6120
siesta:    3    -6846.0153    -6845.8287    -6845.8634  0.1880 -2.2220
siesta:    4    -6845.5677    -6844.8994    -6844.9562  0.1452 -2.4521
siesta:    5    -6845.5610    -6844.9200    -6844.9547  0.1339 -2.4412
siesta:    6    -6845.5356    -6845.3180    -6845.3527  0.0248 -2.3668
siesta:    7    -6845.5350    -6845.5248    -6845.5599  0.0012 -2.3574
siesta:    8    -6845.5350    -6845.5478    -6845.5830  0.0009 -2.3582

siesta: E_KS(eV) =            -6845.5436

siesta: E_KS - E_eggbox =     -6845.5436

siesta: Atomic forces (eV/Ang):
----------------------------------------
   Tot   -0.000009   -0.000010   -0.000002
----------------------------------------
   Max    9.571077
   Res    1.679953    sqrt( Sum f_i^2 / 3N )
----------------------------------------
   Max    9.571077    constrained

Stress-tensor-Voigt (kbar):      -77.67      -77.67      -77.67      -15.44      -15.44      -15.44
(Free)E + p*V (eV/cell)    -6783.4901
Target enthalpy (eV/cell)    -6845.5787

* Maximum dynamic memory allocated =    10 MB

siesta:                 ==============================
                            Begin CG move =      1
                        ==============================

outcell: Unit cell vectors (Ang):
       10.860000    0.000000    0.000000
        0.000000   10.860000    0.000000
        0.000000    0.000000   10.860000

outcell: Cell vector modules (Ang)   :   10.860000   10.860000   10.860000
outcell: Cell angles (23,13,12) (deg):     90.0000     90.0000     90.0000
outcell: Cell volume (Ang**3)        :   1280.8241
 Folding of H and S is implicitly performed
New_DM. Step:     2
Re-using DM from previous geometry...
Re-using DM without extrapolation (not allowed)
Density Matrix sparsity pattern changed.

siesta: iscf   Eharris(eV)      E_KS(eV)   FreeEng(eV)   dDmax  Ef(eV)
siesta:    1    -6847.7456    -6846.8921    -6846.9273  0.3087 -2.3150
siesta:    2    -6850.1567    -6846.8251    -6846.8602  0.4782 -3.7411
siesta:    3    -6847.5466    -6847.0216    -6847.0620  0.1169 -2.5361
siesta:    4    -6847.5460    -6847.1545    -6847.1892  0.0898 -2.5408
siesta:    5    -6847.5439    -6847.6534    -6847.6881  0.0136 -2.5134
siesta:    6    -6847.5434    -6847.5577    -6847.5923  0.0071 -2.5261
siesta:    7    -6847.5434    -6847.5669    -6847.6015  0.0018 -2.5265
siesta:    8    -6847.5434    -6847.5455    -6847.5801  0.0004 -2.5266

siesta: E_KS(eV) =            -6847.5440

siesta: Atomic forces (eV/Ang):
----------------------------------------
   Tot   -0.000009   -0.000003   -0.000000
----------------------------------------
   Max    6.926040
   Res    1.215962    sqrt( Sum f_i^2 / 3N )
----------------------------------------
   Max    6.926040    constrained

Stress-tensor-Voigt (kbar):      -75.10      -75.10      -75.10      -11.88      -11.88      -11.88
(Free)E + p*V (eV/cell)    -6787.5414
Target enthalpy (eV/cell)    -6847.5786

* Maximum dynamic memory allocated =    10 MB

siesta:                 ==============================
                            Begin CG move =      2
                        ==============================

outcell: Unit cell vectors (Ang):
       10.860000    0.000000    0.000000
        0.000000   10.860000    0.000000
        0.000000    0.000000   10.860000

outcell: Cell vector modules (Ang)   :   10.860000   10.860000   10.860000
outcell: Cell angles (23,13,12) (deg):     90.0000     90.0000     90.0000
outcell: Cell volume (Ang**3)        :   1280.8241
 Folding of H and S is implicitly performed
New_DM. Step:     3
Re-using DM from previous geometry...
Re-using DM without extrapolation (not allowed)
Density Matrix sparsity pattern changed.

siesta: iscf   Eharris(eV)      E_KS(eV)   FreeEng(eV)   dDmax  Ef(eV)
siesta:    1    -6849.9029    -6848.6157    -6848.6504  0.3260 -2.4834
siesta:    2    -6853.2812    -6848.6849    -6848.7196  0.5415 -3.8201
siesta:    3    -6849.6319    -6848.8116    -6848.8752  0.1426 -2.7550
siesta:    4    -6849.6264    -6849.0626    -6849.0973  0.0845 -2.7960
siesta:    5    -6849.6250    -6849.6198    -6849.6545  0.0056 -2.8111
siesta:    6    -6849.6246    -6849.6587    -6849.6933  0.0050 -2.8017
siesta:    7    -6849.6245    -6849.6424    -6849.6770  0.0011 -2.7951
siesta:    8    -6849.6245    -6849.6265    -6849.6612  0.0007 -2.7950

siesta: E_KS(eV) =            -6849.6249

siesta: Atomic forces (eV/Ang):
----------------------------------------
   Tot   -0.000021   -0.000011   -0.000000
----------------------------------------
   Max    3.843838
   Res    0.681413    sqrt( Sum f_i^2 / 3N )
----------------------------------------
   Max    3.843838    constrained

Stress-tensor-Voigt (kbar):      -72.87      -72.87      -72.87       -7.15       -7.15       -7.15
(Free)E + p*V (eV/cell)    -6791.4028
Target enthalpy (eV/cell)    -6849.6596

* Maximum dynamic memory allocated =    10 MB

siesta:                 ==============================
                            Begin CG move =      3
                        ==============================

outcell: Unit cell vectors (Ang):
       10.860000    0.000000    0.000000
        0.000000   10.860000    0.000000
        0.000000    0.000000   10.860000

outcell: Cell vector modules (Ang)   :   10.860000   10.860000   10.860000
outcell: Cell angles (23,13,12) (deg):     90.0000     90.0000     90.0000
outcell: Cell volume (Ang**3)        :   1280.8241
 Folding of H and S is implicitly performed
New_DM. Step:     4
Re-using DM from previous geometry...
Re-using DM without extrapolation (not allowed)
Density Matrix sparsity pattern changed.

siesta: iscf   Eharris(eV)      E_KS(eV)   FreeEng(eV)   dDmax  Ef(eV)
siesta:    1    -6851.0542    -6849.9900    -6850.0247  0.2390 -2.8896
siesta:    2    -6852.2810    -6850.5278    -6850.5624  0.3390 -3.8709
siesta:    3    -6850.9347    -6850.2702    -6850.3396  0.1070 -3.0362
siesta:    4    -6850.9218    -6850.5655    -6850.6001  0.0295 -3.0944
siesta:    5    -6850.9202    -6850.7820    -6850.8167  0.0073 -3.1105
siesta:    6    -6850.9201    -6850.8643    -6850.8989  0.0045 -3.1137
siesta:    7    -6850.9199    -6850.9209    -6850.9555  0.0016 -3.1297
siesta:    8    -6850.9199    -6850.9228    -6850.9575  0.0014 -3.1264
siesta:    9    -6850.9198    -6850.9205    -6850.9552  0.0008 -3.1273

siesta: E_KS(eV) =            -6850.9196

siesta: Atomic forces (eV/Ang):
----------------------------------------
   Tot   -0.000002   -0.000001   -0.000003
----------------------------------------
   Max    0.791289
   Res    0.241848    sqrt( Sum f_i^2 / 3N )
----------------------------------------
   Max    0.791289    constrained

Stress-tensor-Voigt (kbar):      -70.88      -70.88      -70.88       -1.48       -1.48       -1.48
(Free)E + p*V (eV/cell)    -6794.2949
Target enthalpy (eV/cell)    -6850.9543

* Maximum dynamic memory allocated =    11 MB

siesta:                 ==============================
                            Begin CG move =      4
                        ==============================

outcell: Unit cell vectors (Ang):
       10.860000    0.000000    0.000000
        0.000000   10.860000    0.000000
        0.000000    0.000000   10.860000

outcell: Cell vector modules (Ang)   :   10.860000   10.860000   10.860000
outcell: Cell angles (23,13,12) (deg):     90.0000     90.0000     90.0000
outcell: Cell volume (Ang**3)        :   1280.8241
 Folding of H and S is implicitly performed
New_DM. Step:     5
Re-using DM from previous geometry...
Re-using DM without extrapolation (not allowed)
Density Matrix sparsity pattern changed.

siesta: iscf   Eharris(eV)      E_KS(eV)   FreeEng(eV)   dDmax  Ef(eV)
siesta:    1    -6850.8259    -6850.6768    -6850.7115  0.0812 -3.4796
siesta:    2    -6850.9491    -6850.7508    -6850.7855  0.0564 -3.0890
siesta:    3    -6850.8040    -6850.7369    -6850.7715  0.0287 -3.3874
siesta:    4    -6850.8013    -6850.7745    -6850.8091  0.0069 -3.3470
siesta:    5    -6850.8010    -6850.7853    -6850.8200  0.0021 -3.3567
siesta:    6    -6850.8010    -6850.7918    -6850.8265  0.0006 -3.3575

siesta: E_KS(eV) =            -6850.7964

siesta: Atomic forces (eV/Ang):
----------------------------------------
   Tot   -0.000003   -0.000004   -0.000005
----------------------------------------
   Max    0.923428
   Res    0.325122    sqrt( Sum f_i^2 / 3N )
----------------------------------------
   Max    0.923428    constrained

Stress-tensor-Voigt (kbar):      -70.37      -70.37      -70.37        2.42        2.42        2.42
(Free)E + p*V (eV/cell)    -6794.5783
Target enthalpy (eV/cell)    -6850.8311

* Maximum dynamic memory allocated =    11 MB

siesta:                 ==============================
                            Begin CG move =      5
                        ==============================

outcell: Unit cell vectors (Ang):
       10.860000    0.000000    0.000000
        0.000000   10.860000    0.000000
        0.000000    0.000000   10.860000

outcell: Cell vector modules (Ang)   :   10.860000   10.860000   10.860000
outcell: Cell angles (23,13,12) (deg):     90.0000     90.0000     90.0000
outcell: Cell volume (Ang**3)        :   1280.8241
 Folding of H and S is implicitly performed
New_DM. Step:     6
Re-using DM from previous geometry...
Re-using DM without extrapolation (not allowed)
Density Matrix sparsity pattern changed.

siesta: iscf   Eharris(eV)      E_KS(eV)   FreeEng(eV)   dDmax  Ef(eV)
siesta:    1    -6851.0209    -6851.0778    -6851.1124  0.0319 -3.1166
siesta:    2    -6851.1898    -6850.9348    -6850.9695  0.0703 -3.5842
siesta:    3    -6850.9973    -6851.0208    -6851.0555  0.0202 -3.2292
siesta:    4    -6850.9968    -6850.9908    -6851.0255  0.0085 -3.2518
siesta:    5    -6850.9967    -6850.9906    -6851.0253  0.0026 -3.2435
siesta:    6    -6850.9966    -6850.9932    -6851.0278  0.0008 -3.2430

siesta: E_KS(eV) =            -6850.9949

siesta: Atomic forces (eV/Ang):
----------------------------------------
   Tot   -0.000008   -0.000007   -0.000006
----------------------------------------
   Max    0.773125
   Res    0.240536    sqrt( Sum f_i^2 / 3N )
----------------------------------------
   Max    0.773125    constrained

Stress-tensor-Voigt (kbar):      -70.48      -70.48      -70.48        0.39        0.39        0.39
(Free)E + p*V (eV/cell)    -6794.6884
Target enthalpy (eV/cell)    -6851.0296

cgvc: Finished line minimization    1.  Mean atomic displacement =    0.1024

* Maximum dynamic memory allocated =    11 MB

siesta:                 ==============================
                            Begin CG move =      6
                        ==============================

outcell: Unit cell vectors (Ang):
       10.860000    0.000000    0.000000
        0.000000   10.860000    0.000000
        0.000000    0.000000   10.860000

outcell: Cell vector modules (Ang)   :   10.860000   10.860000   10.860000
outcell: Cell angles (23,13,12) (deg):     90.0000     90.0000     90.0000
outcell: Cell volume (Ang**3)        :   1280.8241
 Folding of H and S is implicitly performed
New_DM. Step:     7
Re-using DM from previous geometry...
Re-using DM without extrapolation (not allowed)
Density Matrix sparsity pattern changed.

siesta: iscf   Eharris(eV)      E_KS(eV)   FreeEng(eV)   dDmax  Ef(eV)
siesta:    1    -6851.0377    -6851.2805    -6851.3152  0.2044 -3.3754
siesta:    2    -6852.4739    -6850.1359    -6850.1706  0.3280 -2.2728
siesta:    3    -6850.7547    -6850.9465    -6851.0275  0.0655 -3.0024
siesta:    4    -6850.7412    -6850.8444    -6850.8790  0.0345 -2.9569
siesta:    5    -6850.7378    -6850.6989    -6850.7335  0.0047 -2.9390
siesta:    6    -6850.7375    -6850.7082    -6850.7429  0.0017 -2.9446
siesta:    7    -6850.7374    -6850.7200    -6850.7547  0.0005 -2.9378

siesta: E_KS(eV) =            -6850.7273

siesta: Atomic forces (eV/Ang):
----------------------------------------
   Tot   -0.000004    0.000006   -0.000000
----------------------------------------
   Max    1.073692
   Res    0.364645    sqrt( Sum f_i^2 / 3N )
----------------------------------------
   Max    1.073692    constrained

Stress-tensor-Voigt (kbar):      -71.04      -71.04      -71.04       -6.68       -6.68       -6.68
(Free)E + p*V (eV/cell)    -6793.9717
Target enthalpy (eV/cell)    -6850.7619

* Maximum dynamic memory allocated =    11 MB

siesta:                 ==============================
                            Begin CG move =      7
                        ==============================

outcell: Unit cell vectors (Ang):
       10.860000    0.000000    0.000000
        0.000000   10.860000    0.000000
        0.000000    0.000000   10.860000

outcell: Cell vector modules (Ang)   :   10.860000   10.860000   10.860000
outcell: Cell angles (23,13,12) (deg):     90.0000     90.0000     90.0000
outcell: Cell volume (Ang**3)        :   1280.8241
 Folding of H and S is implicitly performed
New_DM. Step:     8
Re-using DM from previous geometry...
Re-using DM without extrapolation (not allowed)
Density Matrix sparsity pattern changed.

siesta: iscf   Eharris(eV)      E_KS(eV)   FreeEng(eV)   dDmax  Ef(eV)
siesta:    1    -6851.3749    -6850.9694    -6851.0041  0.1232 -2.8581
siesta:    2    -6851.8934    -6851.0360    -6851.0706  0.1680 -3.7996
siesta:    3    -6851.2718    -6851.0680    -6851.1064  0.0287 -3.0886
siesta:    4    -6851.2697    -6851.1763    -6851.2110  0.0135 -3.1106
siesta:    5    -6851.2690    -6851.2802    -6851.3149  0.0034 -3.0961
siesta:    6    -6851.2689    -6851.2810    -6851.3157  0.0016 -3.0983
siesta:    7    -6851.2689    -6851.2729    -6851.3076  0.0002 -3.0972

siesta: E_KS(eV) =            -6851.2709

siesta: Atomic forces (eV/Ang):
----------------------------------------
   Tot   -0.000005   -0.000011   -0.000010
----------------------------------------
   Max    0.210252
   Res    0.103861    sqrt( Sum f_i^2 / 3N )
----------------------------------------
   Max    0.210252    constrained

Stress-tensor-Voigt (kbar):      -69.49      -69.49      -69.49       -3.05       -3.05       -3.05
(Free)E + p*V (eV/cell)    -6795.7542
Target enthalpy (eV/cell)    -6851.3056

cgvc: Finished line minimization    2.  Mean atomic displacement =    0.0461

* Maximum dynamic memory allocated =    11 MB

siesta:                 ==============================
                            Begin CG move =      8
                        ==============================

outcell: Unit cell vectors (Ang):
       10.860000    0.000000    0.000000
        0.000000   10.860000    0.000000
        0.000000    0.000000   10.860000

outcell: Cell vector modules (Ang)   :   10.860000   10.860000   10.860000
outcell: Cell angles (23,13,12) (deg):     90.0000     90.0000     90.0000
outcell: Cell volume (Ang**3)        :   1280.8241
 Folding of H and S is implicitly performed
New_DM. Step:     9
Re-using DM from previous geometry...
Re-using DM without extrapolation (not allowed)
Density Matrix sparsity pattern changed.

siesta: iscf   Eharris(eV)      E_KS(eV)   FreeEng(eV)   dDmax  Ef(eV)
siesta:    1    -6851.2664    -6851.3531    -6851.3877  0.0292 -3.1127
siesta:    2    -6851.4144    -6851.1470    -6851.1816  0.0473 -2.8397
siesta:    3    -6851.2258    -6851.2846    -6851.3193  0.0109 -3.0508
siesta:    4    -6851.2241    -6851.2492    -6851.2839  0.0043 -3.0439
siesta:    5    -6851.2236    -6851.2350    -6851.2697  0.0017 -3.0557
siesta:    6    -6851.2236    -6851.2299    -6851.2645  0.0008 -3.0537

siesta: E_KS(eV) =            -6851.2270

siesta: Atomic forces (eV/Ang):
----------------------------------------
   Tot    0.000003   -0.000006   -0.000006
----------------------------------------
   Max    0.334382
   Res    0.158858    sqrt( Sum f_i^2 / 3N )
----------------------------------------
   Max    0.334382    constrained

Stress-tensor-Voigt (kbar):      -70.24      -70.24      -70.24       -3.48       -3.48       -3.48
(Free)E + p*V (eV/cell)    -6795.1086
Target enthalpy (eV/cell)    -6851.2617

* Maximum dynamic memory allocated =    11 MB

siesta:                 ==============================
                            Begin CG move =      9
                        ==============================

outcell: Unit cell vectors (Ang):
       10.860000    0.000000    0.000000
        0.000000   10.860000    0.000000
        0.000000    0.000000   10.860000

outcell: Cell vector modules (Ang)   :   10.860000   10.860000   10.860000
outcell: Cell angles (23,13,12) (deg):     90.0000     90.0000     90.0000
outcell: Cell volume (Ang**3)        :   1280.8241
 Folding of H and S is implicitly performed
New_DM. Step:    10
Re-using DM from previous geometry...
Re-using DM without extrapolation (not allowed)
Density Matrix sparsity pattern changed.

siesta: iscf   Eharris(eV)      E_KS(eV)   FreeEng(eV)   dDmax  Ef(eV)
siesta:    1    -6851.3330    -6851.2597    -6851.2944  0.0171 -3.0433
siesta:    2    -6851.3850    -6851.2911    -6851.3258  0.0264 -3.2195
siesta:    3    -6851.3188    -6851.2829    -6851.3176  0.0063 -3.0803
siesta:    4    -6851.3182    -6851.3115    -6851.3462  0.0023 -3.0821
siesta:    5    -6851.3181    -6851.3202    -6851.3548  0.0011 -3.0766
siesta:    6    -6851.3181    -6851.3201    -6851.3548  0.0004 -3.0783

siesta: E_KS(eV) =            -6851.3190

siesta: Atomic forces (eV/Ang):
----------------------------------------
   Tot    0.000003   -0.000005   -0.000003
----------------------------------------
   Max    0.109637
   Res    0.053881    sqrt( Sum f_i^2 / 3N )
----------------------------------------
   Max    0.109637    constrained

Stress-tensor-Voigt (kbar):      -69.81      -69.81      -69.81       -3.14       -3.14       -3.14
(Free)E + p*V (eV/cell)    -6795.5473
Target enthalpy (eV/cell)    -6851.3537

cgvc: Finished line minimization    3.  Mean atomic displacement =    0.0189

* Maximum dynamic memory allocated =    11 MB

siesta:                 ==============================
                            Begin CG move =     10
                        ==============================

outcell: Unit cell vectors (Ang):
       10.860000    0.000000    0.000000
        0.000000   10.860000    0.000000
        0.000000    0.000000   10.860000

outcell: Cell vector modules (Ang)   :   10.860000   10.860000   10.860000
outcell: Cell angles (23,13,12) (deg):     90.0000     90.0000     90.0000
outcell: Cell volume (Ang**3)        :   1280.8241
 Folding of H and S is implicitly performed
New_DM. Step:    11
Re-using DM from previous geometry...
Re-using DM without extrapolation (not allowed)
Density Matrix sparsity pattern changed.

siesta: iscf   Eharris(eV)      E_KS(eV)   FreeEng(eV)   dDmax  Ef(eV)
siesta:    1    -6851.3263    -6851.3143    -6851.3489  0.0232 -3.0667
siesta:    2    -6851.3331    -6851.3071    -6851.3418  0.0211 -3.1440
siesta:    3    -6851.3176    -6851.3145    -6851.3492  0.0041 -3.0991
siesta:    4    -6851.3175    -6851.3165    -6851.3511  0.0011 -3.0938
siesta:    5    -6851.3174    -6851.3170    -6851.3517  0.0006 -3.0970

siesta: E_KS(eV) =            -6851.3172

siesta: Atomic forces (eV/Ang):
----------------------------------------
   Tot    0.000001   -0.000009   -0.000008
----------------------------------------
   Max    0.204097
   Res    0.070852    sqrt( Sum f_i^2 / 3N )
----------------------------------------
   Max    0.204097    constrained

Stress-tensor-Voigt (kbar):      -69.66      -69.66      -69.66       -1.99       -1.99       -1.99
(Free)E + p*V (eV/cell)    -6795.6677
Target enthalpy (eV/cell)    -6851.3518

* Maximum dynamic memory allocated =    11 MB

siesta:                 ==============================
                            Begin CG move =     11
                        ==============================

outcell: Unit cell vectors (Ang):
       10.860000    0.000000    0.000000
        0.000000   10.860000    0.000000
        0.000000    0.000000   10.860000

outcell: Cell vector modules (Ang)   :   10.860000   10.860000   10.860000
outcell: Cell angles (23,13,12) (deg):     90.0000     90.0000     90.0000
outcell: Cell volume (Ang**3)        :   1280.8241
 Folding of H and S is implicitly performed
New_DM. Step:    12
Re-using DM from previous geometry...
Re-using DM without extrapolation (not allowed)
Density Matrix sparsity pattern changed.

siesta: iscf   Eharris(eV)      E_KS(eV)   FreeEng(eV)   dDmax  Ef(eV)
siesta:    1    -6851.3353    -6851.3346    -6851.3692  0.0115 -3.1013
siesta:    2    -6851.3370    -6851.3302    -6851.3649  0.0106 -3.0632
siesta:    3    -6851.3331    -6851.3333    -6851.3679  0.0021 -3.0853
siesta:    4    -6851.3329    -6851.3329    -6851.3675  0.0006 -3.0878

siesta: E_KS(eV) =            -6851.3329

siesta: Atomic forces (eV/Ang):
----------------------------------------
   Tot   -0.000011   -0.000009   -0.000015
----------------------------------------
   Max    0.051335
   Res    0.025262    sqrt( Sum f_i^2 / 3N )
----------------------------------------
   Max    0.051335    constrained

Stress-tensor-Voigt (kbar):      -70.16      -70.16      -70.16       -2.63       -2.63       -2.63
(Free)E + p*V (eV/cell)    -6795.2808
Target enthalpy (eV/cell)    -6851.3676

cgvc: Finished line minimization    4.  Mean atomic displacement =    0.0094

* Maximum dynamic memory allocated =    11 MB

siesta:                 ==============================
                            Begin CG move =     12
                        ==============================

outcell: Unit cell vectors (Ang):
       10.860000    0.000000    0.000000
        0.000000   10.860000    0.000000
        0.000000    0.000000   10.860000

outcell: Cell vector modules (Ang)   :   10.860000   10.860000   10.860000
outcell: Cell angles (23,13,12) (deg):     90.0000     90.0000     90.0000
outcell: Cell volume (Ang**3)        :   1280.8241
 Folding of H and S is implicitly performed
New_DM. Step:    13
Re-using DM from previous geometry...
Re-using DM without extrapolation (not allowed)
Density Matrix sparsity pattern changed.

siesta: iscf   Eharris(eV)      E_KS(eV)   FreeEng(eV)   dDmax  Ef(eV)
siesta:    1    -6851.3357    -6851.3518    -6851.3865  0.0042 -3.0693
siesta:    2    -6851.3380    -6851.3315    -6851.3662  0.0076 -3.1031
siesta:    3    -6851.3339    -6851.3411    -6851.3758  0.0018 -3.0844
siesta:    4    -6851.3339    -6851.3349    -6851.3695  0.0004 -3.0826

siesta: E_KS(eV) =            -6851.3339

siesta: Atomic forces (eV/Ang):
----------------------------------------
   Tot   -0.000021   -0.000022   -0.000025
----------------------------------------
   Max    0.080200
   Res    0.029459    sqrt( Sum f_i^2 / 3N )
----------------------------------------
   Max    0.080200    constrained

Stress-tensor-Voigt (kbar):      -69.91      -69.91      -69.91       -2.85       -2.85       -2.85
(Free)E + p*V (eV/cell)    -6795.4818
Target enthalpy (eV/cell)    -6851.3685

* Maximum dynamic memory allocated =    11 MB

siesta:                 ==============================
                            Begin CG move =     13
                        ==============================

outcell: Unit cell vectors (Ang):
       10.860000    0.000000    0.000000
        0.000000   10.860000    0.000000
        0.000000    0.000000   10.860000

outcell: Cell vector modules (Ang)   :   10.860000   10.860000   10.860000
outcell: Cell angles (23,13,12) (deg):     90.0000     90.0000     90.0000
outcell: Cell volume (Ang**3)        :   1280.8241
 Folding of H and S is implicitly performed
New_DM. Step:    14
Re-using DM from previous geometry...
Re-using DM without extrapolation (not allowed)
Density Matrix sparsity pattern changed.

siesta: iscf   Eharris(eV)      E_KS(eV)   FreeEng(eV)   dDmax  Ef(eV)
siesta:    1    -6851.3365    -6851.3284    -6851.3631  0.0019 -3.0919
siesta:    2    -6851.3369    -6851.3357    -6851.3703  0.0034 -3.0763
siesta:    3    -6851.3362    -6851.3327    -6851.3674  0.0008 -3.0852

siesta: E_KS(eV) =            -6851.3356

siesta: Atomic forces (eV/Ang):
----------------------------------------
   Tot   -0.000007   -0.000013   -0.000015
----------------------------------------
   Max    0.032518
   Res    0.014420    sqrt( Sum f_i^2 / 3N )
----------------------------------------
   Max    0.032518    constrained

Stress-tensor-Voigt (kbar):      -69.77      -69.77      -69.77       -2.82       -2.82       -2.82
(Free)E + p*V (eV/cell)    -6795.5952
Target enthalpy (eV/cell)    -6851.3702

* Maximum dynamic memory allocated =    11 MB

outcoor: Relaxed atomic coordinates (scaled):               
   -0.00034599   -0.00034600   -0.00034600   1       1  Si
    0.25034599    0.25034597    0.25034595   1       2  Si
    0.00023558    0.50094578    0.50094577   1       3  Si
    0.25173055    0.75040299    0.75040299   1       4  Si
    0.50094579    0.00023558    0.50094579   1       5  Si
    0.75040300    0.25173054    0.75040300   1       6  Si
    0.50094580    0.50094579    0.00023557   1       7  Si
    0.75040300    0.75040301    0.25173055   1       8  Si
    1.00041391    0.00145868    0.00145868   1       9  Si
    1.24958611    0.24854132    0.24854131   1      10  Si
    1.00021709    0.49633364    0.49633363   1      11  Si
    1.25576826    0.74031758    0.74031758   1      12  Si
    1.50000195    0.00094717    0.49881292   1      13  Si
    1.75118711    0.24905284    0.74999807   1      14  Si
    1.50000195    0.49881291    0.00094717   1      15  Si
    1.75118708    0.74999806    0.24905286   1      16  Si
    0.00145870    1.00041389    0.00145870   1      17  Si
    0.24854131    1.24958611    0.24854133   1      18  Si
    0.00094715    1.50000194    0.49881292   1      19  Si
    0.24905284    1.75118709    0.74999807   1      20  Si
    0.49633365    1.00021711    0.49633365   1      21  Si
    0.74031760    1.25576827    0.74031760   1      22  Si
    0.49881291    1.50000193    0.00094717   1      23  Si
    0.74999807    1.75118709    0.24905284   1      24  Si
    0.00145870    0.00145868    1.00041389   1      25  Si
    0.24854133    0.24854134    1.24958609   1      26  Si
    0.00094716    0.49881291    1.50000193   1      27  Si
    0.24905283    0.74999807    1.75118709   1      28  Si
    0.49881291    0.00094718    1.50000193   1      29  Si
    0.74999808    0.24905283    1.75118710   1      30  Si
    0.49633366    0.49633365    1.00021709   1      31  Si
    0.74031760    0.74031759    1.25576826   1      32  Si
    0.99971220    0.99971218    0.00133038   1      33  Si
    1.25028778    1.25028778    0.24866964   1      34  Si
    1.00153192    1.50114179    0.49776400   1      35  Si
    1.24846814    1.75223604    0.74885820   1      36  Si
    1.50114177    1.00153192    0.49776399   1      37  Si
    1.75223602    1.24846811    0.74885823   1      38  Si
    1.49959697    1.49959697   -0.00173060   1      39  Si
    1.74905419    1.74905420    0.24976440   1      40  Si
    0.99971217    0.00133037    0.99971218   1      41  Si
    1.25028777    0.24866962    1.25028777   1      42  Si
    1.00153191    0.49776397    1.50114177   1      43  Si
    1.24846813    0.74885820    1.75223601   1      44  Si
    1.49959696   -0.00173059    1.49959697   1      45  Si
    1.74905420    0.24976440    1.74905420   1      46  Si
    1.50114178    0.49776398    1.00153189   1      47  Si
    1.75223600    0.74885821    1.24846811   1      48  Si
    0.00133037    0.99971217    0.99971220   1      49  Si
    0.24866961    1.25028778    1.25028780   1      50  Si
   -0.00173059    1.49959696    1.49959698   1      51  Si
    0.24976440    1.74905420    1.74905419   1      52  Si
    0.49776399    1.00153190    1.50114178   1      53  Si
    0.74885821    1.24846810    1.75223601   1      54  Si
    0.49776400    1.50114176    1.00153191   1      55  Si
    0.74885820    1.75223601    1.24846813   1      56  Si
    0.95149872    0.95149872    0.95149871   1      57  Si
    1.29850121    1.29850120    1.29850120   1      58  Si
    0.99423172    1.50968238    1.50968238   1      59  Si
    1.24978283    1.75366635    1.75366634   1      60  Si
    1.50968237    0.99423173    1.50968239   1      61  Si
    1.75366636    1.24978283    1.75366638   1      62  Si
    1.50968239    1.50968239    0.99423173   1      63  Si
    1.75366635    1.75366637    1.24978284   1      64  Si
    1.12499999    1.12499999    1.12499998   2      65  H

siesta: Program's energy decomposition (eV):
siesta: Ebs     =     -2384.375087
siesta: Eions   =     12205.375277
siesta: Ena     =      3675.791968
siesta: Ekin    =      2573.419341
siesta: Enl     =       951.657062
siesta: DEna    =       213.822571
siesta: DUscf   =         5.345315
siesta: DUext   =         0.000000
siesta: Exc     =     -2065.996550
siesta: eta*DQ  =         0.000000
siesta: Emadel  =         0.000000
siesta: Emeta   =         0.000000
siesta: Emolmec =         0.000000
siesta: Ekinion =         0.000000
siesta: Eharris =     -6851.336165
siesta: Etot    =     -6851.335570
siesta: FreeEng =     -6851.370228

siesta: Final energy (eV):
siesta:  Band Struct. =   -2384.375087
siesta:       Kinetic =    2573.419341
siesta:       Hartree =     405.716292
siesta:    Ext. field =       0.000000
siesta:   Exch.-corr. =   -2065.996550
siesta:  Ion-electron =   -3075.620971
siesta:       Ion-ion =   -4688.853683
siesta:       Ekinion =       0.000000
siesta:         Total =   -6851.335570

siesta: Stress tensor (static) (eV/Ang**3):
siesta:    -0.043546   -0.001762   -0.001762
siesta:    -0.001762   -0.043546   -0.001762
siesta:    -0.001762   -0.001762   -0.043546

siesta: Cell volume =       1280.824056 Ang**3

siesta: Pressure (static):
siesta:                Solid            Molecule  Units
siesta:           0.00047427          0.00047128  Ry/Bohr**3
siesta:           0.04354620          0.04327158  eV/Ang**3
siesta:          69.76945981         69.32945587  kBar
(Free)E+ p_basis*V_orbitals  =       -6834.167929
(Free)Eharris+ p_basis*V_orbitals  =       -6834.171369

* Maximum dynamic memory allocated : Node    0 =    11 MB
* Maximum dynamic memory allocated : Node    1 =    11 MB
* Maximum dynamic memory allocated : Node    2 =    11 MB
* Maximum dynamic memory allocated : Node    3 =    10 MB

* Maximum memory occured during matrixMtoO                    

timer: CPU execution times:
timer:  Routine       Calls   Time/call    Tot.time        %
timer:  siesta            1     118.150     118.150   100.00
timer:  Setup             1       1.096       1.096     0.93
timer:  bands             1       0.004       0.004     0.00
timer:  writewave         1       0.003       0.003     0.00
timer:  KSV_init          1       0.000       0.000     0.00
timer:  IterMD           14       8.356     116.988    99.02
timer:  hsparse          14       0.054       0.758     0.64
timer:  overlap          14       0.020       0.275     0.23
timer:  IterSCF          87       1.016      88.358    74.78
timer:  kinefsm          28       0.022       0.611     0.52
timer:  nlefsm           28       0.272       7.629     6.46
timer:  DHSCF           101       0.711      71.762    60.74
timer:  DHSCF1            1       0.043       0.043     0.04
timer:  DHSCF2           14       0.638       8.931     7.56
timer:  REORD           634       0.000       0.139     0.12
timer:  POISON          115       0.028       3.277     2.77
timer:  DHSCF3          101       0.486      49.112    41.57
timer:  rhoofd          101       0.250      25.226    21.35
timer:  cellXC          101       0.044       4.405     3.73
timer:  vmat            101       0.148      14.951    12.65
timer:  MolMec           28       0.000       0.002     0.00
timer:  diagon           87       0.232      20.179    17.08
timer:  r-eigvec         87       0.210      18.285    15.48
timer:  r-buildHS        87       0.000       0.032     0.03
timer:  rdiag            87       0.210      18.252    15.45
timer:  rdiag1           87       0.007       0.645     0.55
timer:  rdiag2           87       0.029       2.551     2.16
timer:  rdiag3           87       0.153      13.327    11.28
timer:  rdiag4           87       0.018       1.544     1.31
timer:  r-buildD         87       0.020       1.782     1.51
timer:  DHSCF4           14       0.974      13.641    11.55
timer:  dfscf            14       0.808      11.312     9.57
timer:  overfsm          14       0.021       0.291     0.25
timer:  optical           1       0.049       0.049     0.04
  

elaps: ELAPSED times:
elaps:  Routine       Calls   Time/call    Tot.time        %
elaps:  siesta            1      30.219      30.219   100.00
elaps:  Setup             1       0.278       0.278     0.92
elaps:  bands             1       0.000       0.000     0.00
elaps:  writewave         1       0.001       0.001     0.00
elaps:  KSV_init          1       0.000       0.000     0.00
elaps:  IterMD           14       2.137      29.923    99.02
elaps:  hsparse          14       0.014       0.195     0.65
elaps:  overlap          14       0.005       0.075     0.25
elaps:  IterSCF          87       0.262      22.800    75.45
elaps:  kinefsm          28       0.006       0.166     0.55
elaps:  nlefsm           28       0.072       2.006     6.64
elaps:  DHSCF           101       0.177      17.909    59.26
elaps:  DHSCF1            1       0.011       0.011     0.04
elaps:  DHSCF2           14       0.159       2.232     7.39
elaps:  REORD           634       0.000       0.049     0.16
elaps:  POISON          115       0.007       0.813     2.69
elaps:  DHSCF3          101       0.122      12.280    40.64
elaps:  rhoofd          101       0.061       6.175    20.43
elaps:  cellXC          101       0.011       1.096     3.63
elaps:  vmat            101       0.037       3.738    12.37
elaps:  MolMec           28       0.000       0.000     0.00
elaps:  diagon           87       0.058       5.052    16.72
elaps:  r-eigvec         87       0.053       4.582    15.16
elaps:  r-buildHS        87       0.000       0.008     0.03
elaps:  rdiag            87       0.053       4.574    15.14
elaps:  rdiag1           87       0.002       0.157     0.52
elaps:  rdiag2           87       0.007       0.646     2.14
elaps:  rdiag3           87       0.038       3.323    11.00
elaps:  rdiag4           87       0.004       0.389     1.29
elaps:  r-buildD         87       0.005       0.448     1.48
elaps:  DHSCF4           14       0.241       3.376    11.17
elaps:  dfscf            14       0.200       2.800     9.27
elaps:  overfsm          14       0.006       0.079     0.26
elaps:  optical           1       0.000       0.000     0.00
  
>> End of run:  24-MAR-2013  18:44:45
