Siesta Version  : v4.1-b4-351
Architecture    : x86_64-linux-n-62-26-19
Compiler version: GNU Fortran (GCC) 9.3.0
Compiler flags  : mpifort -m64 -fPIC -O3 -march=native -ftree-vectorize -fexpensive-optimizatioons -funroll-loops -fprefetch-loop-arrays -fno-second-underscore  -flto
PP flags        : -I/dtu/sw/dcc/SL73/2020-aug/generic/build-tools/1.0/include -I/dtu/sw/dcc/SL773/2020-aug/generic/gcc/9.3.0/include -I/dtu/sw/dcc/SL73/2020-aug/generic/gcc/9.3.0/include -I/dtu/sw/dcc/SL73/2020-aug/XeonE5-2660v3/gnu/9.3.0/zlib/1.2.11/include -I/dtu/sw/dcc/SL73/2020-aug/generic/numactl/2.0.12/include -I/dtu/sw/dcc/SL73/2020-aug/XeonE5-2660v3/gnu/9.3.0/libxml2/2.9.10/include -I/dtu/sw/dcc/SL73/2020-aug/XeonE5-2660v3/gnu/9.3.0/hwloc/2.2.0/include -I/dtu/sw/dcc/SL73/2020-aug/XeonE5-2660v3/gnu/9.3.0/knem/1.1.4/include -I/dtu/sw/dcc/SL73/2020-aug/XeonE5-2660v3/gnu/9.3.0/ucx/1.8.1/include -I/dtu/sw/dcc/SL73/2020-aug/XeonE5-2660v3/gnu/9.3.0/openmpi/4.0.4/include -I/dtu/sw/dcc/SL73/2020-aug/XeonE5-2660v3/gnu/9.3.0/szip/2.1.1/include -I/dtu/sw/dcc/SL73/2020-aug/XeonE5-2660v3/gnu/9.3.0/hdf5/1.12.0/include -I/dtu/sw/dcc/SL73/2020-aug/XeonE5-2660v3/gnu/9.3.0/pnetcdf/1.12.1/include -I/dtu/sw/dcc/SL73/2020-aug/generic/gen-zlib/1.2.11/include -I/dtu/sw/dcc/SL73/2020-aug/generic/openssl/1.1.1/include -I/dtu/sw/dcc/SL73/2020-aug/generic/libssh2/1.8.2/include -I/dtu/sw/dcc/SL73/2020-aug/generic/curl/7.65.1/include -I/dtu/sw/dcc/SL73/2020-aug/XeonE5-2660v3/gnu/9.3.0/netcdf/4.7.4/include -I/dtu/sw/dcc/SL73/2020-aug/XeonE5-2660v3/gnu/9.3.0/flook/0.8.1/include -I/dtu/sw/dcc/SL73/2020-aug/XeonE5-2660v3/gnu/9.3.0/fftw/3.3.8/include -I/dtu/sw/dcc/SL73/2020-aug/XeonE5-2660v3/gnu/9.3.0/parmetis/4.0.3/include -I/dtu/sw/dcc/SL73/2020-aug/XeonE5-2660v3/gnu/9.3.0/scalapack/2.1.0/include -I/dtu/sw/dcc/SL73/2020-aug/XeonE5-2660v3/gnu/9.3.0/lapack/3.9.0/include -I/dtu/sw/dcc/SL73/2020-aug/XeonE5-2660v3/gnu/9.3.0/blis/0.7.0/include -I/dtu/sw/dcc/SL73/2020-aug/XeonE5-2660v3/gnu/9.3.0/scotch/6.0.9/include -I/dtu/sw/dcc/SL73/2020-aug/XeonE5-2660v3/gnu/9.3.0/mumps/5.3.3/include -I/dtu/sw/dcc/SL73/2020-aug/XeonE5-2660v3/gnu/9.3.0/elpa/2020.05.001/include -DSIESTA__ELPA -DMPI -DFC_HAVE_FLUSH -DFC_HAVE_ABORT -DCDF -DCDF4 -DSIESTA__FLOOK  -DNCDF -DNCDF_4 -DNCDF_PARALLEL -DTS_NOCHECKS -DSIESTA__METIS -DSIESTA__MUMPS -DSIESTA__MRRR -I/dtu/sw/dcc/SL73/2020-aug/XeonE5-2660v3/gnu/9.3.0/elpa/2020.05.001/include/elpa
Libraries       : libncdf.a libfdict.a -lnetcdff -lnetcdf -lpnetcdf -lhdf5_hl -lhdf5 -lz  -lzmuumps -lmumps_common -lesmumps -lscotch -lscotcherr -lpord -lparmetis -lmetis -lelpa -lscalapack -llapack -lblis  -L/dtu/sw/dcc/SL73/2020-aug/XeonE5-2660v3/gnu/9.3.0/flook/0.8.1/lib -Wl,-rpath=/dtu/sw/dcc/SL73/2020-aug/XeonE5-2660v3/gnu/9.3.0/flook/0.8.1/lib -lflookall -ldl  -flto -fuse-linker-plugin  -lmetis
PARALLEL version
NetCDF support
NetCDF-4 support
NetCDF-4 MPI-IO support
METIS ordering support
Lua support

* Running on 8 nodes in parallel
>> Start of run:  22-JAN-2021  23:26:56

                           ***********************       
                           *  WELCOME TO SIESTA  *       
                           ***********************       

reinit: Reading from ../sih_fire.fdf

reinit: -----------------------------------------------------------------------
reinit: System Name: H in 64-atom silicon -- Fire quenching
reinit: -----------------------------------------------------------------------
reinit: System Label: sih_fire
reinit: -----------------------------------------------------------------------

initatom: Reading input for the pseudopotentials and atomic orbitals ----------
Species number:   1 Atomic number:   14 Label: Si
Species number:   2 Atomic number:    1 Label: H

Ground state valence configuration:   3s02  3p02
Reading pseudopotential information in formatted form from Si.psf

Valence configuration for pseudopotential generation:
3s( 2.00) rc: 1.89
3p( 2.00) rc: 1.89
3d( 0.00) rc: 1.89
4f( 0.00) rc: 1.89
Ground state valence configuration:   1s01
Reading pseudopotential information in formatted form from H.psf

Valence configuration for pseudopotential generation:
1s( 1.00) rc: 1.25
2p( 0.00) rc: 1.25
3d( 0.00) rc: 1.25
4f( 0.00) rc: 1.25
remass: Read atomic mass for species    1 as     20.00000
remass: Read atomic mass for species    2 as     20.00000
For Si, standard SIESTA heuristics set lmxkb to 2
 (one more than the basis l, including polarization orbitals).
Use PS.lmax or PS.KBprojectors blocks to override.
For H, standard SIESTA heuristics set lmxkb to 1
 (one more than the basis l, including polarization orbitals).
Use PS.lmax or PS.KBprojectors blocks to override.

<basis_specs>
===============================================================================
Si                   Z=  14    Mass=  20.000        Charge= 0.17977+309
Lmxo=1 Lmxkb= 2    BasisType=split      Semic=F
L=0  Nsemic=0  Cnfigmx=3
          i=1  nzeta=1  polorb=0  (3s)
            splnorm:   0.15000    
               vcte:    0.0000    
               rinn:    0.0000    
               qcoe:    0.0000    
               qyuk:    0.0000    
               qwid:   0.10000E-01
                rcs:    5.0000    
            lambdas:    1.0000    
L=1  Nsemic=0  Cnfigmx=3
          i=1  nzeta=1  polorb=0  (3p)
            splnorm:   0.15000    
               vcte:    0.0000    
               rinn:    0.0000    
               qcoe:    0.0000    
               qyuk:    0.0000    
               qwid:   0.10000E-01
                rcs:    5.0000    
            lambdas:    1.0000    
-------------------------------------------------------------------------------
L=0  Nkbl=1  erefs: 0.17977+309
L=1  Nkbl=1  erefs: 0.17977+309
L=2  Nkbl=1  erefs: 0.17977+309
===============================================================================
</basis_specs>

atom: Called for Si                    (Z =  14)

read_vps: Pseudopotential generation method:
read_vps: ATM3      Troullier-Martins                       
Valence charge for ps generation:    4.00000

xc_check: Exchange-correlation functional:
xc_check: Ceperley-Alder
V l=0 = -2*Zval/r beyond r=  2.5494
V l=1 = -2*Zval/r beyond r=  2.5494
V l=2 = -2*Zval/r beyond r=  2.5494
All V_l potentials equal beyond r=  1.8652
This should be close to max(r_c) in ps generation
All pots = -2*Zval/r beyond r=  2.5494
Using large-core scheme for Vlocal

atom: Estimated core radius    2.54944

atom: Including non-local core corrections could be a good idea
atom: Maximum radius for 4*pi*r*r*local-pseudopot. charge    2.85303
atom: Maximum radius for r*vlocal+2*Zval:    2.58151
GHOST: No ghost state for L =  0
GHOST: No ghost state for L =  1
GHOST: No ghost state for L =  2

KBgen: Kleinman-Bylander projectors: 
   l= 0   rc=  1.936440   el= -0.796617   Ekb=  4.661340   kbcos=  0.299756
   l= 1   rc=  1.936440   el= -0.307040   Ekb=  1.494238   kbcos=  0.301471
   l= 2   rc=  1.936440   el=  0.002313   Ekb= -2.808672   kbcos= -0.054903

KBgen: Total number of  Kleinman-Bylander projectors:    9
atom: -------------------------------------------------------------------------

atom: SANKEY-TYPE ORBITALS:

SPLIT: Orbitals with angular momentum L= 0

SPLIT: Basis orbitals for state 3s

   izeta = 1
                 lambda =    1.000000
                     rc =    5.007352
                 energy =   -0.777669
                kinetic =    0.573829
    potential(screened) =   -1.351499
       potential(ionic) =   -3.827441

SPLIT: Orbitals with angular momentum L= 1

SPLIT: Basis orbitals for state 3p

   izeta = 1
                 lambda =    1.000000
                     rc =    5.007352
                 energy =   -0.237751
                kinetic =    1.062052
    potential(screened) =   -1.299803
       potential(ionic) =   -3.655477
atom: Total number of Sankey-type orbitals:  4

atm_pop: Valence configuration (for local Pseudopot. screening):
 3s( 2.00)                                                            
 3p( 2.00)                                                            
Vna: chval, zval:    4.00000   4.00000

Vna:  Cut-off radius for the neutral-atom potential:   5.007352

atom: _________________________________________________________________________

<basis_specs>
===============================================================================
H                    Z=   1    Mass=  20.000        Charge= 0.17977+309
Lmxo=0 Lmxkb= 1    BasisType=split      Semic=F
L=0  Nsemic=0  Cnfigmx=1
          i=1  nzeta=1  polorb=0  (1s)
            splnorm:   0.15000    
               vcte:    0.0000    
               rinn:    0.0000    
               qcoe:    0.0000    
               qyuk:    0.0000    
               qwid:   0.10000E-01
                rcs:    5.0000    
            lambdas:   0.80000    
-------------------------------------------------------------------------------
L=0  Nkbl=1  erefs: 0.17977+309
L=1  Nkbl=1  erefs: 0.17977+309
===============================================================================
</basis_specs>

atom: Called for H                     (Z =   1)

read_vps: Pseudopotential generation method:
read_vps: ATM3      Troullier-Martins                       
Valence charge for ps generation:    1.00000

xc_check: Exchange-correlation functional:
xc_check: Ceperley-Alder
V l=0 = -2*Zval/r beyond r=  1.2343
V l=1 = -2*Zval/r beyond r=  1.2189
All V_l potentials equal beyond r=  1.2343
This should be close to max(r_c) in ps generation
All pots = -2*Zval/r beyond r=  1.2343

VLOCAL1: 99.0% of the norm of Vloc inside     28.493 Ry
VLOCAL1: 99.9% of the norm of Vloc inside     64.935 Ry
atom: Maximum radius for 4*pi*r*r*local-pseudopot. charge    1.45251
atom: Maximum radius for r*vlocal+2*Zval:    1.21892
GHOST: No ghost state for L =  0
GHOST: No ghost state for L =  1

KBgen: Kleinman-Bylander projectors: 
   l= 0   rc=  1.364359   el= -0.467325   Ekb= -2.005361   kbcos= -0.336422
   l= 1   rc=  1.434438   el=  0.001430   Ekb= -0.501708   kbcos= -0.021697

KBgen: Total number of  Kleinman-Bylander projectors:    4
atom: -------------------------------------------------------------------------

atom: SANKEY-TYPE ORBITALS:

SPLIT: Orbitals with angular momentum L= 0

SPLIT: Basis orbitals for state 1s

   izeta = 1
                 lambda =    0.800000
                     rc =    5.085873
                 energy =   -0.403043
                kinetic =    1.320206
    potential(screened) =   -1.723249
       potential(ionic) =   -2.279386
atom: Total number of Sankey-type orbitals:  1

atm_pop: Valence configuration (for local Pseudopot. screening):
 1s( 1.00)                                                            
Vna: chval, zval:    1.00000   1.00000

Vna:  Cut-off radius for the neutral-atom potential:   5.075940

atom: _________________________________________________________________________

prinput: Basis input ----------------------------------------------------------

PAO.BasisType split     

%block ChemicalSpeciesLabel
    1   14 Si                      # Species index, atomic number, species label
    2    1 H                       # Species index, atomic number, species label
%endblock ChemicalSpeciesLabel

%block PAO.Basis                 # Define Basis set
Si                    2                    # Species label, number of l-shells
 n=3   0   1                         # n, l, Nzeta 
   5.007   
   1.000   
 n=3   1   1                         # n, l, Nzeta 
   5.007   
   1.000   
H                     1                    # Species label, number of l-shells
 n=1   0   1                         # n, l, Nzeta 
   5.086   
   0.800   
%endblock PAO.Basis

prinput: ----------------------------------------------------------------------

Dumping basis to NetCDF file Si.ion.nc
Dumping basis to NetCDF file H.ion.nc
coor:   Atomic-coordinates input format  =     Cartesian coordinates
coor:                                          (in units of alat)

siesta: Atomic coordinates (Bohr) and species
siesta:      0.00000   0.00000   0.00000  1        1
siesta:      2.56530   2.56530   2.56530  1        2
siesta:      0.00000   5.13061   5.13061  1        3
siesta:      2.56530   7.69591   7.69591  1        4
siesta:      5.13061   0.00000   5.13061  1        5
siesta:      7.69591   2.56530   7.69591  1        6
siesta:      5.13061   5.13061   0.00000  1        7
siesta:      7.69591   7.69591   2.56530  1        8
siesta:     10.26122   0.00000   0.00000  1        9
siesta:     12.82652   2.56530   2.56530  1       10
siesta:     10.26122   5.13061   5.13061  1       11
siesta:     12.82652   7.69591   7.69591  1       12
siesta:     15.39183   0.00000   5.13061  1       13
siesta:     17.95713   2.56530   7.69591  1       14
siesta:     15.39183   5.13061   0.00000  1       15
siesta:     17.95713   7.69591   2.56530  1       16
siesta:      0.00000  10.26122   0.00000  1       17
siesta:      2.56530  12.82652   2.56530  1       18
siesta:      0.00000  15.39183   5.13061  1       19
siesta:      2.56530  17.95713   7.69591  1       20
siesta:      5.13061  10.26122   5.13061  1       21
siesta:      7.69591  12.82652   7.69591  1       22
siesta:      5.13061  15.39183   0.00000  1       23
siesta:      7.69591  17.95713   2.56530  1       24
siesta:      0.00000   0.00000  10.26122  1       25
siesta:      2.56530   2.56530  12.82652  1       26
siesta:      0.00000   5.13061  15.39183  1       27
siesta:      2.56530   7.69591  17.95713  1       28
siesta:      5.13061   0.00000  15.39183  1       29
siesta:      7.69591   2.56530  17.95713  1       30
siesta:      5.13061   5.13061  10.26122  1       31
siesta:      7.69591   7.69591  12.82652  1       32
siesta:     10.26122  10.26122   0.00000  1       33
siesta:     12.82652  12.82652   2.56530  1       34
siesta:     10.26122  15.39183   5.13061  1       35
siesta:     12.82652  17.95713   7.69591  1       36
siesta:     15.39183  10.26122   5.13061  1       37
siesta:     17.95713  12.82652   7.69591  1       38
siesta:     15.39183  15.39183   0.00000  1       39
siesta:     17.95713  17.95713   2.56530  1       40
siesta:     10.26122   0.00000  10.26122  1       41
siesta:     12.82652   2.56530  12.82652  1       42
siesta:     10.26122   5.13061  15.39183  1       43
siesta:     12.82652   7.69591  17.95713  1       44
siesta:     15.39183   0.00000  15.39183  1       45
siesta:     17.95713   2.56530  17.95713  1       46
siesta:     15.39183   5.13061  10.26122  1       47
siesta:     17.95713   7.69591  12.82652  1       48
siesta:      0.00000  10.26122  10.26122  1       49
siesta:      2.56530  12.82652  12.82652  1       50
siesta:      0.00000  15.39183  15.39183  1       51
siesta:      2.56530  17.95713  17.95713  1       52
siesta:      5.13061  10.26122  15.39183  1       53
siesta:      7.69591  12.82652  17.95713  1       54
siesta:      5.13061  15.39183  10.26122  1       55
siesta:      7.69591  17.95713  12.82652  1       56
siesta:     10.26122  10.26122  10.26122  1       57
siesta:     12.82652  12.82652  12.82652  1       58
siesta:     10.26122  15.39183  15.39183  1       59
siesta:     12.82652  17.95713  17.95713  1       60
siesta:     15.39183  10.26122  15.39183  1       61
siesta:     17.95713  12.82652  17.95713  1       62
siesta:     15.39183  15.39183  10.26122  1       63
siesta:     17.95713  17.95713  12.82652  1       64
siesta:     11.54387  11.54387  11.54387  2       65

siesta: System type = bulk      

initatomlists: Number of atoms, orbitals, and projectors:     65   257   580

siesta: ******************** Simulation parameters ****************************
siesta:
siesta: The following are some of the parameters of the simulation.
siesta: A complete list of the parameters used, including default values,
siesta: can be found in file out.fdf
siesta:
redata: Spin configuration                          = none
redata: Number of spin components                   = 1
redata: Time-Reversal Symmetry                      = T
redata: Spin spiral                                 = F
redata: Long output                                 =   F
redata: Number of Atomic Species                    =        2
redata: Charge density info will appear in .RHO file
redata: Write Mulliken Pop.                         = NO
redata: Matel table size (NRTAB)                    =     1024
redata: Mesh Cutoff                                 =    40.0000 Ry
redata: Net charge of the system                    =     0.0000 |e|
redata: Min. number of SCF Iter                     =        0
redata: Max. number of SCF Iter                     =     1000
redata: SCF convergence failure will abort job
redata: SCF mix quantity                            = Hamiltonian
redata: Mix DM or H after convergence               =   F
redata: Recompute H after scf cycle                 =   F
redata: Mix DM in first SCF step                    =   T
redata: Write Pulay info on disk                    =   F
redata: New DM Occupancy tolerance                  = 0.000000000001
redata: No kicks to SCF
redata: DM Mixing Weight for Kicks                  =     0.5000
redata: Require Harris convergence for SCF          =   F
redata: Harris energy tolerance for SCF             =     0.000100 eV
redata: Require DM convergence for SCF              =   T
redata: DM tolerance for SCF                        =     0.001000
redata: Require EDM convergence for SCF             =   F
redata: EDM tolerance for SCF                       =     0.001000 eV
redata: Require H convergence for SCF               =   T
redata: Hamiltonian tolerance for SCF               =     0.001000 eV
redata: Require (free) Energy convergence for SCF   =   F
redata: (free) Energy tolerance for SCF             =     0.000100 eV
redata: Using Saved Data (generic)                  =   F
redata: Use continuation files for DM               =   T
redata: Neglect nonoverlap interactions             =   F
redata: Method of Calculation                       = Diagonalization
redata: Electronic Temperature                      =   290.1109 K
redata: Fix the spin of the system                  =   F
redata: Dynamics option                             = Verlet MD run
redata: Initial MD time step                        =        1
redata:   Final MD time step                        =     1000
redata: Length of MD time step                      =     5.0000 fs
redata: Initial Temperature of MD run               =     0.0000 K
redata: Perform a MD Fire quench                    =   T
mix.SCF: Pulay mixing                            = Pulay
mix.SCF:    Variant                              = stable
mix.SCF:    History steps                        = 3
mix.SCF:    Linear mixing weight                 =     0.300000
mix.SCF:    Mixing weight                        =     0.300000
mix.SCF:    SVD condition                        = 0.1000E-07
redata: Save all siesta data in one NC              =   F
redata: ***********************************************************************

%block SCF.Mixers
  Pulay
%endblock SCF.Mixers

%block SCF.Mixer.Pulay
  # Mixing method
  method pulay
  variant stable

  # Mixing options
  weight 0.3000
  weight.linear 0.3000
  history 3
%endblock SCF.Mixer.Pulay

Size of DM history Fstack: 1
Total number of electrons:   257.000000
Total ionic charge:   257.000000

* ProcessorY, Blocksize:    2  24


* Orbital distribution balance (max,min):    48    24

 Kpoints in:            1 . Kpoints trimmed:            1

siesta: k-grid: Number of k-points =     1
siesta: k-grid: Cutoff (effective) =     5.430 Ang
siesta: k-grid: Supercell and displacements
siesta: k-grid:    1   0   0      0.000
siesta: k-grid:    0   1   0      0.000
siesta: k-grid:    0   0   1      0.000

diag: Algorithm                                     = D&C
diag: Parallel over k                               =   F
diag: Use parallel 2D distribution                  =   T
diag: Parallel block-size                           = 24
diag: Parallel distribution                         =     2 x     4
diag: Used triangular part                          = Lower
diag: Absolute tolerance                            =  0.100E-15
diag: Orthogonalization factor                      =  0.100E-05
diag: Memory factor                                 =  1.0000


ts: **************************************************************
ts: Save H and S matrices                           =    F
ts: Save DM and EDM matrices                        =    F
ts: Only save the overlap matrix S                  =    F
ts: **************************************************************

************************ Begin: TS CHECKS AND WARNINGS ************************
************************ End: TS CHECKS AND WARNINGS **************************


                     ====================================
                        Begin MD quenched step =      1
                     ====================================

outcell: Unit cell vectors (Ang):
       10.860000    0.000000    0.000000
        0.000000   10.860000    0.000000
        0.000000    0.000000   10.860000

outcell: Cell vector modules (Ang)   :   10.860000   10.860000   10.860000
outcell: Cell angles (23,13,12) (deg):     90.0000     90.0000     90.0000
outcell: Cell volume (Ang**3)        :   1280.8241
<dSpData1D:S at geom step 1
  <sparsity:sparsity for geom step 1
    nrows_g=257 nrows=48 sparsity=.0845 nnzs=5584, refcount: 7>
  <dData1D:(new from dSpData1D) n=5584, refcount: 1>
refcount: 1>
new_DM -- step:     1
Initializing Density Matrix...

Attempting to read DM from file... Failed...
DM filled with atomic data:
<dSpData2D:DM initialized from atoms
  <sparsity:sparsity for geom step 1
    nrows_g=257 nrows=48 sparsity=.0845 nnzs=5584, refcount: 8>
  <dData2D:DM n=5584 m=1, refcount: 1>
refcount: 1>
No. of atoms with KB's overlaping orbs in proc 0. Max # of overlaps:      34      21
New grid distribution:   1
           1       1:   24    1:   12    1:    6
           2       1:   24    1:   12    7:   12
           3       1:   24    1:   12   13:   18
           4       1:   24    1:   12   19:   24
           5       1:   24   13:   24    1:    6
           6       1:   24   13:   24    7:   12
           7       1:   24   13:   24   13:   18
           8       1:   24   13:   24   19:   24

InitMesh: MESH =    48 x    48 x    48 =      110592
InitMesh: (bp) =    24 x    24 x    24 =       13824
InitMesh: Mesh cutoff (required, used) =    40.000    53.991 Ry
ExtMesh (bp) on 0 =    48 x    36 x    30 =       51840
New grid distribution:   2
           1       1:   12   13:   24   13:   24
           2      13:   24    1:   12    1:   12
           3      13:   24    1:   12   13:   24
           4      13:   24   13:   24    1:   12
           5       1:   12    1:   12   13:   24
           6       1:   12    1:   12    1:   12
           7      13:   24   13:   24   13:   24
           8       1:   12   13:   24    1:   12
New grid distribution:   3
           1       1:   12   13:   24   13:   24
           2      13:   24    1:   12    1:   12
           3      13:   24    1:   12   13:   24
           4      13:   24   13:   24    1:   12
           5       1:   12    1:   12   13:   24
           6       1:   12    1:   12    1:   12
           7      13:   24   13:   24   13:   24
           8       1:   12   13:   24    1:   12
Setting up quadratic distribution...
ExtMesh (bp) on 0 =    36 x    36 x    36 =       46656
PhiOnMesh: Number of (b)points on node 0 =                 1728
PhiOnMesh: nlist on node 0 =                32731

stepf: Fermi-Dirac step function

siesta: Program's energy decomposition (eV):
siesta: Ebs     =     -2027.041231
siesta: Eions   =     12205.375272
siesta: Ena     =      3582.446641
siesta: Ekin    =      2739.634503
siesta: Enl     =       955.440106
siesta: Eso     =         0.000000
siesta: Edftu   =         0.000000
siesta: DEna    =       198.404756
siesta: DUscf   =         7.063047
siesta: DUext   =         0.000000
siesta: Exc     =     -2101.523225
siesta: eta*DQ  =         0.000000
siesta: Emadel  =         0.000000
siesta: Emeta   =         0.000000
siesta: Emolmec =         0.000000
siesta: Ekinion =         0.000000
siesta: Eharris =     -6922.743134
siesta: Etot    =     -6823.909445
siesta: FreeEng =     -6823.967654

        iscf     Eharris(eV)        E_KS(eV)     FreeEng(eV)     dDmax    Ef(eV) dHmax(eV)
   scf:    1    -6922.743134    -6823.909445    -6823.967654  0.904068 -0.228406  5.107939
timer: Routine,Calls,Time,% = IterSCF        1       0.078  20.24
   scf:    2    -6823.715622    -6824.619739    -6824.654412  0.274287 -0.571954  1.673209
   scf:    3    -6824.945111    -6824.878990    -6824.913877  0.060588 -0.461718  0.149269
   scf:    4    -6824.891747    -6824.885894    -6824.920763  0.008841 -0.485030  0.119518
   scf:    5    -6824.891726    -6824.889001    -6824.923803  0.013649 -0.525587  0.020005
   scf:    6    -6824.889265    -6824.889139    -6824.923935  0.002305 -0.533282  0.010784
   scf:    7    -6824.889196    -6824.889171    -6824.923963  0.000952 -0.535564  0.009385
   scf:    8    -6824.889180    -6824.889176    -6824.923969  0.000284 -0.535665  0.002128
   scf:    9    -6824.889182    -6824.889179    -6824.923972  0.000132 -0.535911  0.001243
   scf:   10    -6824.889180    -6824.889180    -6824.923972  0.000122 -0.535858  0.000368

SCF Convergence by DM+H criterion
max |DM_out - DM_in|         :     0.0001215233
max |H_out - H_in|      (eV) :     0.0003682875
SCF cycle converged after 10 iterations

Using DM_out to compute the final energy and forces
No. of atoms with KB's overlaping orbs in proc 0. Max # of overlaps:      34      21

siesta: E_KS(eV) =            -6824.8892

siesta: E_KS - E_eggbox =     -6824.8892

siesta: Atomic forces (eV/Ang):
----------------------------------------
   Tot    0.000000   -0.000000   -0.000000
----------------------------------------
   Max   10.009546
   Res    1.756889    sqrt( Sum f_i^2 / 3N )
----------------------------------------
   Max   10.009546    constrained

Stress tensor Voigt[x,y,z,yz,xz,xy] (kbar):      -57.23      -57.23      -57.23      -16.59      -16.59      -16.59
(Free)E + p*V (eV/cell)    -6779.1730
Target enthalpy (eV/cell)    -6824.9240

siesta: Stress tensor (static) (eV/Ang**3):
        -0.035720   -0.010357   -0.010357
        -0.010357   -0.035720   -0.010357
        -0.010357   -0.010357   -0.035720

siesta: Pressure (static):         57.23028708  kBar

siesta: Stress tensor (total) (eV/Ang**3):
        -0.035720   -0.010357   -0.010357
        -0.010357   -0.035720   -0.010357
        -0.010357   -0.010357   -0.035720

siesta: Pressure (total):         57.23028708  kBar
FIRE: istep, dt, firenpos, firealf, magv
FIRE:      1    2.5000   0    0.1000      0.0000

siesta: Temp_ion =       0.000 K

                     ====================================
                        Begin MD quenched step =      2
                     ====================================

outcell: Unit cell vectors (Ang):
       10.860000    0.000000    0.000000
        0.000000   10.860000    0.000000
        0.000000    0.000000   10.860000

outcell: Cell vector modules (Ang)   :   10.860000   10.860000   10.860000
outcell: Cell angles (23,13,12) (deg):     90.0000     90.0000     90.0000
outcell: Cell volume (Ang**3)        :   1280.8241
<dSpData1D:S at geom step 2
  <sparsity:sparsity for geom step 2
    nrows_g=257 nrows=48 sparsity=.0845 nnzs=5584, refcount: 7>
  <dData1D:(new from dSpData1D) n=5584, refcount: 1>
refcount: 1>
new_DM -- step:     2
Re-using DM from previous geometries...
Number of DMs in history: 1
 DM extrapolation coefficients: 
1   1.00000
New DM after history re-use:
<dSpData2D:SpM extrapolated using coords
  <sparsity:sparsity for geom step 2
    nrows_g=257 nrows=48 sparsity=.0845 nnzs=5584, refcount: 9>
  <dData2D:(temp array for extrapolation) n=5584 m=1, refcount: 1>
refcount: 1>
No. of atoms with KB's overlaping orbs in proc 0. Max # of overlaps:      34      21
New grid distribution:   1
           1       1:   24    1:   12    1:    6
           2       1:   24    1:   12    7:   12
           3       1:   24    1:   12   13:   18
           4       1:   24    1:   12   19:   24
           5       1:   24   13:   24    1:    6
           6       1:   24   13:   24    7:   12
           7       1:   24   13:   24   13:   18
           8       1:   24   13:   24   19:   24

InitMesh: MESH =    48 x    48 x    48 =      110592
InitMesh: (bp) =    24 x    24 x    24 =       13824
InitMesh: Mesh cutoff (required, used) =    40.000    53.991 Ry
ExtMesh (bp) on 0 =    48 x    36 x    30 =       51840
New grid distribution:   2
           1       1:   12   13:   24   13:   24
           2      13:   24    1:   12    1:   12
           3      13:   24    1:   12   13:   24
           4      13:   24   13:   24    1:   12
           5       1:   12    1:   12   13:   24
           6       1:   12    1:   12    1:   12
           7      13:   24   13:   24   13:   24
           8       1:   12   13:   24    1:   12
New grid distribution:   3
           1       1:   12   13:   24   13:   24
           2      13:   24    1:   12    1:   12
           3      13:   24    1:   12   13:   24
           4      13:   24   13:   24    1:   12
           5       1:   12    1:   12   13:   24
           6       1:   12    1:   12    1:   12
           7      13:   24   13:   24   13:   24
           8       1:   12   13:   24    1:   12
Setting up quadratic distribution...
ExtMesh (bp) on 0 =    36 x    36 x    36 =       46656
PhiOnMesh: Number of (b)points on node 0 =                 1728
PhiOnMesh: nlist on node 0 =                32683

        iscf     Eharris(eV)        E_KS(eV)     FreeEng(eV)     dDmax    Ef(eV) dHmax(eV)
   scf:    1    -6822.581091    -6825.773939    -6825.809242  0.388386 -0.429073  6.666141
   scf:    2    -6720.788515    -6794.063219    -6794.126608  0.724809 -2.199313 24.010692
   scf:    3    -6834.202215    -6827.752687    -6827.787344  0.549543 -0.808456  0.308750
   scf:    4    -6827.755810    -6827.754624    -6827.789281  0.011066 -0.822122  0.092648
   scf:    5    -6827.755143    -6827.754899    -6827.789557  0.005793 -0.823154  0.041313
   scf:    6    -6827.755037    -6827.754972    -6827.789630  0.003701 -0.823622  0.010765
   scf:    7    -6827.754990    -6827.754982    -6827.789639  0.001457 -0.823690  0.000882
   scf:    8    -6827.754983    -6827.754983    -6827.789640  0.000115 -0.823542  0.000911

SCF Convergence by DM+H criterion
max |DM_out - DM_in|         :     0.0001149125
max |H_out - H_in|      (eV) :     0.0009105956
SCF cycle converged after 8 iterations

Using DM_out to compute the final energy and forces
No. of atoms with KB's overlaping orbs in proc 0. Max # of overlaps:      34      21

siesta: E_KS(eV) =            -6827.7550

siesta: Atomic forces (eV/Ang):
----------------------------------------
   Tot    0.000000    0.000000    0.000000
----------------------------------------
   Max    6.155725
   Res    1.080691    sqrt( Sum f_i^2 / 3N )
----------------------------------------
   Max    6.155725    constrained

Stress tensor Voigt[x,y,z,yz,xz,xy] (kbar):      -54.14      -54.14      -54.14      -11.50      -11.50      -11.50
(Free)E + p*V (eV/cell)    -6784.5086
Target enthalpy (eV/cell)    -6827.7896

siesta: Stress tensor (static) (eV/Ang**3):
        -0.033792   -0.007179   -0.007179
        -0.007179   -0.033792   -0.007179
        -0.007179   -0.007179   -0.033792

siesta: Pressure (static):         54.14066004  kBar

siesta: Stress tensor (total) (eV/Ang**3):
        -0.033792   -0.007179   -0.007179
        -0.007179   -0.033792   -0.007179
        -0.007179   -0.007179   -0.033792

siesta: Pressure (total):         54.14066004  kBar
FIRE: istep, dt, firenpos, firealf, magv
FIRE:      2    2.5000   1    0.1000      0.0448

siesta: Temp_ion =      70.973 K

                     ====================================
                        Begin MD quenched step =      3
                     ====================================

outcell: Unit cell vectors (Ang):
       10.860000    0.000000    0.000000
        0.000000   10.860000    0.000000
        0.000000    0.000000   10.860000

outcell: Cell vector modules (Ang)   :   10.860000   10.860000   10.860000
outcell: Cell angles (23,13,12) (deg):     90.0000     90.0000     90.0000
outcell: Cell volume (Ang**3)        :   1280.8241
<dSpData1D:S at geom step 3
  <sparsity:sparsity for geom step 3
    nrows_g=257 nrows=48 sparsity=.0845 nnzs=5584, refcount: 7>
  <dData1D:(new from dSpData1D) n=5584, refcount: 1>
refcount: 1>
new_DM -- step:     3
Re-using DM from previous geometries...
Number of DMs in history: 1
 DM extrapolation coefficients: 
1   1.00000
New DM after history re-use:
<dSpData2D:SpM extrapolated using coords
  <sparsity:sparsity for geom step 3
    nrows_g=257 nrows=48 sparsity=.0845 nnzs=5584, refcount: 9>
  <dData2D:(temp array for extrapolation) n=5584 m=1, refcount: 1>
refcount: 1>
No. of atoms with KB's overlaping orbs in proc 0. Max # of overlaps:      34      21
New grid distribution:   1
           1       1:   24    1:   12    1:    6
           2       1:   24    1:   12    7:   12
           3       1:   24    1:   12   13:   18
           4       1:   24    1:   12   19:   24
           5       1:   24   13:   24    1:    6
           6       1:   24   13:   24    7:   12
           7       1:   24   13:   24   13:   18
           8       1:   24   13:   24   19:   24

InitMesh: MESH =    48 x    48 x    48 =      110592
InitMesh: (bp) =    24 x    24 x    24 =       13824
InitMesh: Mesh cutoff (required, used) =    40.000    53.991 Ry
ExtMesh (bp) on 0 =    48 x    36 x    30 =       51840
New grid distribution:   2
           1       1:   12   13:   24   13:   24
           2      13:   24    1:   12    1:   12
           3      13:   24    1:   12   13:   24
           4      13:   24   13:   24    1:   12
           5       1:   12    1:   12   13:   24
           6       1:   12    1:   12    1:   12
           7      13:   24   13:   24   13:   24
           8       1:   12   13:   24    1:   12
New grid distribution:   3
           1       1:   12   13:   24   13:   24
           2      13:   24    1:   12    1:   12
           3      13:   24    1:   12   13:   24
           4      13:   24   13:   24    1:   12
           5       1:   12    1:   12   13:   24
           6       1:   12    1:   12    1:   12
           7      13:   24   13:   24   13:   24
           8       1:   12   13:   24    1:   12
Setting up quadratic distribution...
ExtMesh (bp) on 0 =    36 x    36 x    36 =       46656
PhiOnMesh: Number of (b)points on node 0 =                 1728
PhiOnMesh: nlist on node 0 =                32679

        iscf     Eharris(eV)        E_KS(eV)     FreeEng(eV)     dDmax    Ef(eV) dHmax(eV)
   scf:    1    -6828.542257    -6828.538350    -6828.573007  0.139454 -0.754621  2.426719
   scf:    2    -6818.842439    -6825.713288    -6825.747946  0.199299 -1.828065  7.075177
   scf:    3    -6829.586004    -6828.816197    -6828.850854  0.140192 -0.980689  0.091522
   scf:    4    -6828.817330    -6828.817057    -6828.851714  0.002938 -0.968332  0.026532
   scf:    5    -6828.817112    -6828.817086    -6828.851743  0.001387 -0.967918  0.017731
   scf:    6    -6828.817114    -6828.817101    -6828.851759  0.001694 -0.967925  0.002453
   scf:    7    -6828.817103    -6828.817102    -6828.851759  0.000268 -0.967844  0.000737

SCF Convergence by DM+H criterion
max |DM_out - DM_in|         :     0.0002682490
max |H_out - H_in|      (eV) :     0.0007373300
SCF cycle converged after 7 iterations

Using DM_out to compute the final energy and forces
No. of atoms with KB's overlaping orbs in proc 0. Max # of overlaps:      34      21

siesta: E_KS(eV) =            -6828.8171

siesta: Atomic forces (eV/Ang):
----------------------------------------
   Tot   -0.000000   -0.000000    0.000000
----------------------------------------
   Max    4.412825
   Res    0.777406    sqrt( Sum f_i^2 / 3N )
----------------------------------------
   Max    4.412825    constrained

Stress tensor Voigt[x,y,z,yz,xz,xy] (kbar):      -52.93      -52.93      -52.93       -9.23       -9.23       -9.23
(Free)E + p*V (eV/cell)    -6786.5411
Target enthalpy (eV/cell)    -6828.8518

siesta: Stress tensor (static) (eV/Ang**3):
        -0.032731   -0.005457   -0.005457
        -0.005457   -0.032731   -0.005457
        -0.005457   -0.005457   -0.032731

siesta: Pressure (static):         52.44073295  kBar

siesta: Stress tensor (total) (eV/Ang**3):
        -0.033034   -0.005760   -0.005760
        -0.005760   -0.033034   -0.005760
        -0.005760   -0.005760   -0.033034

siesta: Pressure (total):         52.92681987  kBar
FIRE: istep, dt, firenpos, firealf, magv
FIRE:      3    2.5000   2    0.1000      0.0741

siesta: Temp_ion =     194.140 K

                     ====================================
                        Begin MD quenched step =      4
                     ====================================

outcell: Unit cell vectors (Ang):
       10.860000    0.000000    0.000000
        0.000000   10.860000    0.000000
        0.000000    0.000000   10.860000

outcell: Cell vector modules (Ang)   :   10.860000   10.860000   10.860000
outcell: Cell angles (23,13,12) (deg):     90.0000     90.0000     90.0000
outcell: Cell volume (Ang**3)        :   1280.8241
<dSpData1D:S at geom step 4
  <sparsity:sparsity for geom step 4
    nrows_g=257 nrows=48 sparsity=.0850 nnzs=5616, refcount: 7>
  <dData1D:(new from dSpData1D) n=5616, refcount: 1>
refcount: 1>
new_DM -- step:     4
Re-using DM from previous geometries...
Number of DMs in history: 1
 DM extrapolation coefficients: 
1   1.00000
New DM after history re-use:
<dSpData2D:SpM extrapolated using coords
  <sparsity:sparsity for geom step 4
    nrows_g=257 nrows=48 sparsity=.0850 nnzs=5616, refcount: 9>
  <dData2D:(temp array for extrapolation) n=5616 m=1, refcount: 1>
refcount: 1>
No. of atoms with KB's overlaping orbs in proc 0. Max # of overlaps:      34      24
New grid distribution:   1
           1       1:   24    1:   12    1:    6
           2       1:   24    1:   12    7:   12
           3       1:   24    1:   12   13:   18
           4       1:   24    1:   12   19:   24
           5       1:   24   13:   24    1:    6
           6       1:   24   13:   24    7:   12
           7       1:   24   13:   24   13:   18
           8       1:   24   13:   24   19:   24

InitMesh: MESH =    48 x    48 x    48 =      110592
InitMesh: (bp) =    24 x    24 x    24 =       13824
InitMesh: Mesh cutoff (required, used) =    40.000    53.991 Ry
ExtMesh (bp) on 0 =    48 x    36 x    30 =       51840
New grid distribution:   2
           1       1:   12   13:   24   13:   24
           2      13:   24    1:   12    1:   12
           3      13:   24    1:   12   13:   24
           4      13:   24   13:   24    1:   12
           5       1:   12    1:   12   13:   24
           6       1:   12    1:   12    1:   12
           7      13:   24   13:   24   13:   24
           8       1:   12   13:   24    1:   12
New grid distribution:   3
           1       1:   12   13:   24   13:   24
           2      13:   24    1:   12    1:   12
           3      13:   24    1:   12   13:   24
           4      13:   24   13:   24    1:   12
           5       1:   12    1:   12   13:   24
           6       1:   12    1:   12    1:   12
           7      13:   24   13:   24   13:   24
           8       1:   12   13:   24    1:   12
Setting up quadratic distribution...
ExtMesh (bp) on 0 =    36 x    36 x    36 =       46656
PhiOnMesh: Number of (b)points on node 0 =                 1728
PhiOnMesh: nlist on node 0 =                32631

        iscf     Eharris(eV)        E_KS(eV)     FreeEng(eV)     dDmax    Ef(eV) dHmax(eV)
   scf:    1    -6829.792900    -6829.579673    -6829.614330  0.126081 -0.927446  2.116227
   scf:    2    -6821.580821    -6827.253602    -6827.288259  0.152375 -1.921901  6.095942
   scf:    3    -6830.440879    -6829.816317    -6829.850974  0.109232 -1.149994  0.050066
   scf:    4    -6829.816792    -6829.816669    -6829.851326  0.001472 -1.142028  0.019135
   scf:    5    -6829.816712    -6829.816691    -6829.851349  0.000925 -1.141867  0.010947
   scf:    6    -6829.816713    -6829.816703    -6829.851360  0.001091 -1.141687  0.000820
   scf:    7    -6829.816704    -6829.816704    -6829.851361  0.000184 -1.141504  0.000481

SCF Convergence by DM+H criterion
max |DM_out - DM_in|         :     0.0001836605
max |H_out - H_in|      (eV) :     0.0004807811
SCF cycle converged after 7 iterations

Using DM_out to compute the final energy and forces
No. of atoms with KB's overlaping orbs in proc 0. Max # of overlaps:      34      24

siesta: E_KS(eV) =            -6829.8167

siesta: Atomic forces (eV/Ang):
----------------------------------------
   Tot   -0.000000   -0.000000    0.000000
----------------------------------------
   Max    2.655038
   Res    0.479737    sqrt( Sum f_i^2 / 3N )
----------------------------------------
   Max    2.655038    constrained

Stress tensor Voigt[x,y,z,yz,xz,xy] (kbar):      -52.45      -52.45      -52.45       -7.32       -7.32       -7.32
(Free)E + p*V (eV/cell)    -6787.9219
Target enthalpy (eV/cell)    -6829.8514

siesta: Stress tensor (static) (eV/Ang**3):
        -0.031906   -0.003743   -0.003743
        -0.003743   -0.031906   -0.003743
        -0.003743   -0.003743   -0.031906

siesta: Pressure (static):         51.12028426  kBar

siesta: Stress tensor (total) (eV/Ang**3):
        -0.032736   -0.004572   -0.004572
        -0.004572   -0.032736   -0.004572
        -0.004572   -0.004572   -0.032736

siesta: Pressure (total):         52.44992304  kBar
FIRE: istep, dt, firenpos, firealf, magv
FIRE:      4    2.5000   3    0.1000      0.0938

siesta: Temp_ion =     310.074 K

                     ====================================
                        Begin MD quenched step =      5
                     ====================================

outcell: Unit cell vectors (Ang):
       10.860000    0.000000    0.000000
        0.000000   10.860000    0.000000
        0.000000    0.000000   10.860000

outcell: Cell vector modules (Ang)   :   10.860000   10.860000   10.860000
outcell: Cell angles (23,13,12) (deg):     90.0000     90.0000     90.0000
outcell: Cell volume (Ang**3)        :   1280.8241
<dSpData1D:S at geom step 5
  <sparsity:sparsity for geom step 5
    nrows_g=257 nrows=48 sparsity=.0850 nnzs=5616, refcount: 7>
  <dData1D:(new from dSpData1D) n=5616, refcount: 1>
refcount: 1>
new_DM -- step:     5
Re-using DM from previous geometries...
Number of DMs in history: 1
 DM extrapolation coefficients: 
1   1.00000
New DM after history re-use:
<dSpData2D:SpM extrapolated using coords
  <sparsity:sparsity for geom step 5
    nrows_g=257 nrows=48 sparsity=.0850 nnzs=5616, refcount: 9>
  <dData2D:(temp array for extrapolation) n=5616 m=1, refcount: 1>
refcount: 1>
No. of atoms with KB's overlaping orbs in proc 0. Max # of overlaps:      34      24
New grid distribution:   1
           1       1:   24    1:   12    1:    6
           2       1:   24    1:   12    7:   12
           3       1:   24    1:   12   13:   18
           4       1:   24    1:   12   19:   24
           5       1:   24   13:   24    1:    6
           6       1:   24   13:   24    7:   12
           7       1:   24   13:   24   13:   18
           8       1:   24   13:   24   19:   24

InitMesh: MESH =    48 x    48 x    48 =      110592
InitMesh: (bp) =    24 x    24 x    24 =       13824
InitMesh: Mesh cutoff (required, used) =    40.000    53.991 Ry
ExtMesh (bp) on 0 =    48 x    36 x    30 =       51840
New grid distribution:   2
           1       1:   12   13:   24   13:   24
           2      13:   24    1:   12    1:   12
           3      13:   24    1:   12   13:   24
           4      13:   24   13:   24    1:   12
           5       1:   12    1:   12   13:   24
           6       1:   12    1:   12    1:   12
           7      13:   24   13:   24   13:   24
           8       1:   12   13:   24    1:   12
New grid distribution:   3
           1       1:   12   13:   24   13:   24
           2      13:   24    1:   12    1:   12
           3      13:   24    1:   12   13:   24
           4      13:   24   13:   24    1:   12
           5       1:   12    1:   12   13:   24
           6       1:   12    1:   12    1:   12
           7      13:   24   13:   24   13:   24
           8       1:   12   13:   24    1:   12
Setting up quadratic distribution...
ExtMesh (bp) on 0 =    36 x    36 x    36 =       46656
PhiOnMesh: Number of (b)points on node 0 =                 1728
PhiOnMesh: nlist on node 0 =                32579

        iscf     Eharris(eV)        E_KS(eV)     FreeEng(eV)     dDmax    Ef(eV) dHmax(eV)
   scf:    1    -6830.884139    -6830.386631    -6830.421288  0.074483 -1.200710  0.868681
   scf:    2    -6828.257904    -6829.765215    -6829.799873  0.059994 -1.657144  2.810202
   scf:    3    -6830.605509    -6830.447441    -6830.482099  0.044673 -1.305676  0.023516
   scf:    4    -6830.447521    -6830.447486    -6830.482143  0.000340 -1.303730  0.006999
   scf:    5    -6830.447522    -6830.447506    -6830.482163  0.000394 -1.302837  0.001078
   scf:    6    -6830.447508    -6830.447507    -6830.482164  0.000090 -1.302498  0.000444

SCF Convergence by DM+H criterion
max |DM_out - DM_in|         :     0.0000897723
max |H_out - H_in|      (eV) :     0.0004438791
SCF cycle converged after 6 iterations

Using DM_out to compute the final energy and forces
No. of atoms with KB's overlaping orbs in proc 0. Max # of overlaps:      34      24

siesta: E_KS(eV) =            -6830.4475

siesta: Atomic forces (eV/Ang):
----------------------------------------
   Tot   -0.000000   -0.000000   -0.000000
----------------------------------------
   Max    1.152558
   Res    0.254246    sqrt( Sum f_i^2 / 3N )
----------------------------------------
   Max    1.152558    constrained

Stress tensor Voigt[x,y,z,yz,xz,xy] (kbar):      -52.80      -52.80      -52.80       -5.60       -5.60       -5.60
(Free)E + p*V (eV/cell)    -6788.2731
Target enthalpy (eV/cell)    -6830.4822

siesta: Stress tensor (static) (eV/Ang**3):
        -0.031629   -0.002179   -0.002179
        -0.002179   -0.031629   -0.002179
        -0.002179   -0.002179   -0.031629

siesta: Pressure (static):         50.67605301  kBar

siesta: Stress tensor (total) (eV/Ang**3):
        -0.032955   -0.003497   -0.003497
        -0.003497   -0.032955   -0.003497
        -0.003497   -0.003497   -0.032955

siesta: Pressure (total):         52.79970998  kBar
FIRE: istep, dt, firenpos, firealf, magv
FIRE:      5    2.5000   4    0.1000      0.1046

siesta: Temp_ion =     376.264 K

                     ====================================
                        Begin MD quenched step =      6
                     ====================================

outcell: Unit cell vectors (Ang):
       10.860000    0.000000    0.000000
        0.000000   10.860000    0.000000
        0.000000    0.000000   10.860000

outcell: Cell vector modules (Ang)   :   10.860000   10.860000   10.860000
outcell: Cell angles (23,13,12) (deg):     90.0000     90.0000     90.0000
outcell: Cell volume (Ang**3)        :   1280.8241
<dSpData1D:S at geom step 6
  <sparsity:sparsity for geom step 6
    nrows_g=257 nrows=48 sparsity=.0850 nnzs=5616, refcount: 7>
  <dData1D:(new from dSpData1D) n=5616, refcount: 1>
refcount: 1>
new_DM -- step:     6
Re-using DM from previous geometries...
Number of DMs in history: 1
 DM extrapolation coefficients: 
1   1.00000
New DM after history re-use:
<dSpData2D:SpM extrapolated using coords
  <sparsity:sparsity for geom step 6
    nrows_g=257 nrows=48 sparsity=.0850 nnzs=5616, refcount: 9>
  <dData2D:(temp array for extrapolation) n=5616 m=1, refcount: 1>
refcount: 1>
No. of atoms with KB's overlaping orbs in proc 0. Max # of overlaps:      34      24
New grid distribution:   1
           1       1:   24    1:   12    1:    6
           2       1:   24    1:   12    7:   12
           3       1:   24    1:   12   13:   18
           4       1:   24    1:   12   19:   24
           5       1:   24   13:   24    1:    6
           6       1:   24   13:   24    7:   12
           7       1:   24   13:   24   13:   18
           8       1:   24   13:   24   19:   24

InitMesh: MESH =    48 x    48 x    48 =      110592
InitMesh: (bp) =    24 x    24 x    24 =       13824
InitMesh: Mesh cutoff (required, used) =    40.000    53.991 Ry
ExtMesh (bp) on 0 =    48 x    36 x    30 =       51840
New grid distribution:   2
           1       1:   12   13:   24   13:   24
           2      13:   24    1:   12    1:   12
           3      13:   24    1:   12   13:   24
           4      13:   24   13:   24    1:   12
           5       1:   12    1:   12   13:   24
           6       1:   12    1:   12    1:   12
           7      13:   24   13:   24   13:   24
           8       1:   12   13:   24    1:   12
New grid distribution:   3
           1       1:   12   13:   24   13:   24
           2      13:   24    1:   12    1:   12
           3      13:   24    1:   12   13:   24
           4      13:   24   13:   24    1:   12
           5       1:   12    1:   12   13:   24
           6       1:   12    1:   12    1:   12
           7      13:   24   13:   24   13:   24
           8       1:   12   13:   24    1:   12
Setting up quadratic distribution...
ExtMesh (bp) on 0 =    36 x    36 x    36 =       46656
PhiOnMesh: Number of (b)points on node 0 =                 1728
PhiOnMesh: nlist on node 0 =                32519

        iscf     Eharris(eV)        E_KS(eV)     FreeEng(eV)     dDmax    Ef(eV) dHmax(eV)
   scf:    1    -6831.050129    -6830.679094    -6830.713751  0.050684 -1.497623  0.563081
   scf:    2    -6830.596397    -6830.659355    -6830.694012  0.033965 -1.338645  0.841098
   scf:    3    -6830.696089    -6830.687868    -6830.722525  0.019484 -1.443610  0.074235
   scf:    4    -6830.688056    -6830.687980    -6830.722637  0.002177 -1.438757  0.020066
   scf:    5    -6830.688011    -6830.687997    -6830.722654  0.000768 -1.438289  0.010995
   scf:    6    -6830.688007    -6830.688002    -6830.722660  0.000585 -1.437398  0.000818

SCF Convergence by DM+H criterion
max |DM_out - DM_in|         :     0.0005852749
max |H_out - H_in|      (eV) :     0.0008179809
SCF cycle converged after 6 iterations

Using DM_out to compute the final energy and forces
No. of atoms with KB's overlaping orbs in proc 0. Max # of overlaps:      34      24

siesta: E_KS(eV) =            -6830.6880

siesta: Atomic forces (eV/Ang):
----------------------------------------
   Tot   -0.000000    0.000000    0.000000
----------------------------------------
   Max    0.562426
   Res    0.165192    sqrt( Sum f_i^2 / 3N )
----------------------------------------
   Max    0.562426    constrained

Stress tensor Voigt[x,y,z,yz,xz,xy] (kbar):      -53.06      -53.06      -53.06       -3.88       -3.88       -3.88
(Free)E + p*V (eV/cell)    -6788.3084
Target enthalpy (eV/cell)    -6830.7227

siesta: Stress tensor (static) (eV/Ang**3):
        -0.031506   -0.000856   -0.000856
        -0.000856   -0.031506   -0.000856
        -0.000856   -0.000856   -0.031506

siesta: Pressure (static):         50.47944098  kBar

siesta: Stress tensor (total) (eV/Ang**3):
        -0.033115   -0.002420   -0.002420
        -0.002420   -0.033115   -0.002420
        -0.002420   -0.002420   -0.033115

siesta: Pressure (total):         53.05641951  kBar
FIRE: istep, dt, firenpos, firealf, magv
FIRE:      6    2.5000   5    0.1000      0.1071

siesta: Temp_ion =     345.015 K

                     ====================================
                        Begin MD quenched step =      7
                     ====================================

outcell: Unit cell vectors (Ang):
       10.860000    0.000000    0.000000
        0.000000   10.860000    0.000000
        0.000000    0.000000   10.860000

outcell: Cell vector modules (Ang)   :   10.860000   10.860000   10.860000
outcell: Cell angles (23,13,12) (deg):     90.0000     90.0000     90.0000
outcell: Cell volume (Ang**3)        :   1280.8241
<dSpData1D:S at geom step 7
  <sparsity:sparsity for geom step 7
    nrows_g=257 nrows=48 sparsity=.0850 nnzs=5616, refcount: 7>
  <dData1D:(new from dSpData1D) n=5616, refcount: 1>
refcount: 1>
new_DM -- step:     7
Re-using DM from previous geometries...
Number of DMs in history: 1
 DM extrapolation coefficients: 
1   1.00000
New DM after history re-use:
<dSpData2D:SpM extrapolated using coords
  <sparsity:sparsity for geom step 7
    nrows_g=257 nrows=48 sparsity=.0850 nnzs=5616, refcount: 9>
  <dData2D:(temp array for extrapolation) n=5616 m=1, refcount: 1>
refcount: 1>
No. of atoms with KB's overlaping orbs in proc 0. Max # of overlaps:      34      24
New grid distribution:   1
           1       1:   24    1:   12    1:    6
           2       1:   24    1:   12    7:   12
           3       1:   24    1:   12   13:   18
           4       1:   24    1:   12   19:   24
           5       1:   24   13:   24    1:    6
           6       1:   24   13:   24    7:   12
           7       1:   24   13:   24   13:   18
           8       1:   24   13:   24   19:   24

InitMesh: MESH =    48 x    48 x    48 =      110592
InitMesh: (bp) =    24 x    24 x    24 =       13824
InitMesh: Mesh cutoff (required, used) =    40.000    53.991 Ry
ExtMesh (bp) on 0 =    48 x    36 x    30 =       51840
New grid distribution:   2
           1       1:   12   13:   24   13:   24
           2      13:   24    1:   12    1:   12
           3      13:   24    1:   12   13:   24
           4      13:   24   13:   24    1:   12
           5       1:   12    1:   12   13:   24
           6       1:   12    1:   12    1:   12
           7      13:   24   13:   24   13:   24
           8       1:   12   13:   24    1:   12
New grid distribution:   3
           1       1:   12   13:   24   13:   24
           2      13:   24    1:   12    1:   12
           3      13:   24    1:   12   13:   24
           4      13:   24   13:   24    1:   12
           5       1:   12    1:   12   13:   24
           6       1:   12    1:   12    1:   12
           7      13:   24   13:   24   13:   24
           8       1:   12   13:   24    1:   12
Setting up quadratic distribution...
ExtMesh (bp) on 0 =    36 x    36 x    36 =       46656
PhiOnMesh: Number of (b)points on node 0 =                 1728
PhiOnMesh: nlist on node 0 =                32463

        iscf     Eharris(eV)        E_KS(eV)     FreeEng(eV)     dDmax    Ef(eV) dHmax(eV)
   scf:    1    -6830.555081    -6830.590280    -6830.624937  0.035431 -1.703786  1.508615
   scf:    2    -6828.581958    -6830.019828    -6830.054485  0.078152 -1.151497  3.343588
   scf:    3    -6830.816083    -6830.671155    -6830.705812  0.055201 -1.541391  0.169953
   scf:    4    -6830.672129    -6830.671775    -6830.706432  0.004560 -1.527878  0.037094
   scf:    5    -6830.671853    -6830.671821    -6830.706478  0.001802 -1.525660  0.007517
   scf:    6    -6830.671830    -6830.671825    -6830.706483  0.000408 -1.525331  0.002668
   scf:    7    -6830.671828    -6830.671827    -6830.706484  0.000246 -1.525041  0.000255

SCF Convergence by DM+H criterion
max |DM_out - DM_in|         :     0.0002463113
max |H_out - H_in|      (eV) :     0.0002552155
SCF cycle converged after 7 iterations

Using DM_out to compute the final energy and forces
No. of atoms with KB's overlaping orbs in proc 0. Max # of overlaps:      34      24

siesta: E_KS(eV) =            -6830.6718

siesta: Atomic forces (eV/Ang):
----------------------------------------
   Tot   -0.000000   -0.000000    0.000000
----------------------------------------
   Max    0.673877
   Res    0.185260    sqrt( Sum f_i^2 / 3N )
----------------------------------------
   Max    0.673877    constrained

Stress tensor Voigt[x,y,z,yz,xz,xy] (kbar):      -52.83      -52.83      -52.83       -2.82       -2.82       -2.82
(Free)E + p*V (eV/cell)    -6788.4738
Target enthalpy (eV/cell)    -6830.7065

siesta: Stress tensor (static) (eV/Ang**3):
        -0.031498   -0.000440   -0.000440
        -0.000440   -0.031498   -0.000440
        -0.000440   -0.000440   -0.031498

siesta: Pressure (static):         50.46632118  kBar

siesta: Stress tensor (total) (eV/Ang**3):
        -0.032973   -0.001761   -0.001761
        -0.001761   -0.032973   -0.001761
        -0.001761   -0.001761   -0.032973

siesta: Pressure (total):         52.82927791  kBar
FIRE: istep, dt, firenpos, firealf, magv
FIRE:      7    1.2500   0    0.1000      0.0000

siesta: Temp_ion =       0.000 K

                     ====================================
                        Begin MD quenched step =      8
                     ====================================

outcell: Unit cell vectors (Ang):
       10.860000    0.000000    0.000000
        0.000000   10.860000    0.000000
        0.000000    0.000000   10.860000

outcell: Cell vector modules (Ang)   :   10.860000   10.860000   10.860000
outcell: Cell angles (23,13,12) (deg):     90.0000     90.0000     90.0000
outcell: Cell volume (Ang**3)        :   1280.8241
<dSpData1D:S at geom step 8
  <sparsity:sparsity for geom step 8
    nrows_g=257 nrows=48 sparsity=.0850 nnzs=5616, refcount: 7>
  <dData1D:(new from dSpData1D) n=5616, refcount: 1>
refcount: 1>
new_DM -- step:     8
Re-using DM from previous geometries...
Number of DMs in history: 1
 DM extrapolation coefficients: 
1   1.00000
New DM after history re-use:
<dSpData2D:SpM extrapolated using coords
  <sparsity:sparsity for geom step 8
    nrows_g=257 nrows=48 sparsity=.0850 nnzs=5616, refcount: 9>
  <dData2D:(temp array for extrapolation) n=5616 m=1, refcount: 1>
refcount: 1>
No. of atoms with KB's overlaping orbs in proc 0. Max # of overlaps:      34      24
New grid distribution:   1
           1       1:   24    1:   12    1:    6
           2       1:   24    1:   12    7:   12
           3       1:   24    1:   12   13:   18
           4       1:   24    1:   12   19:   24
           5       1:   24   13:   24    1:    6
           6       1:   24   13:   24    7:   12
           7       1:   24   13:   24   13:   18
           8       1:   24   13:   24   19:   24

InitMesh: MESH =    48 x    48 x    48 =      110592
InitMesh: (bp) =    24 x    24 x    24 =       13824
InitMesh: Mesh cutoff (required, used) =    40.000    53.991 Ry
ExtMesh (bp) on 0 =    48 x    36 x    30 =       51840
New grid distribution:   2
           1       1:   12   13:   24   13:   24
           2      13:   24    1:   12    1:   12
           3      13:   24    1:   12   13:   24
           4      13:   24   13:   24    1:   12
           5       1:   12    1:   12   13:   24
           6       1:   12    1:   12    1:   12
           7      13:   24   13:   24   13:   24
           8       1:   12   13:   24    1:   12
New grid distribution:   3
           1       1:   12   13:   24   13:   24
           2      13:   24    1:   12    1:   12
           3      13:   24    1:   12   13:   24
           4      13:   24   13:   24    1:   12
           5       1:   12    1:   12   13:   24
           6       1:   12    1:   12    1:   12
           7      13:   24   13:   24   13:   24
           8       1:   12   13:   24    1:   12
Setting up quadratic distribution...
ExtMesh (bp) on 0 =    36 x    36 x    36 =       46656
PhiOnMesh: Number of (b)points on node 0 =                 1728
PhiOnMesh: nlist on node 0 =                32455

        iscf     Eharris(eV)        E_KS(eV)     FreeEng(eV)     dDmax    Ef(eV) dHmax(eV)
   scf:    1    -6830.682989    -6830.681683    -6830.716340  0.001279 -1.521401  0.016317
   scf:    2    -6830.681151    -6830.681541    -6830.716199  0.001471 -1.513125  0.039642
   scf:    3    -6830.681763    -6830.681717    -6830.716375  0.001011 -1.519215  0.002870
   scf:    4    -6830.681718    -6830.681718    -6830.716375  0.000122 -1.519187  0.001491
   scf:    5    -6830.681718    -6830.681718    -6830.716375  0.000076 -1.519248  0.000185

SCF Convergence by DM+H criterion
max |DM_out - DM_in|         :     0.0000763147
max |H_out - H_in|      (eV) :     0.0001845193
SCF cycle converged after 5 iterations

Using DM_out to compute the final energy and forces
No. of atoms with KB's overlaping orbs in proc 0. Max # of overlaps:      34      24

siesta: E_KS(eV) =            -6830.6817

siesta: Atomic forces (eV/Ang):
----------------------------------------
   Tot   -0.000000   -0.000000   -0.000000
----------------------------------------
   Max    0.657923
   Res    0.180575    sqrt( Sum f_i^2 / 3N )
----------------------------------------
   Max    0.657923    constrained

Stress tensor Voigt[x,y,z,yz,xz,xy] (kbar):      -50.46      -50.46      -50.46       -0.77       -0.77       -0.77
(Free)E + p*V (eV/cell)    -6790.3804
Target enthalpy (eV/cell)    -6830.7164

siesta: Stress tensor (static) (eV/Ang**3):
        -0.031492   -0.000484   -0.000484
        -0.000484   -0.031492   -0.000484
        -0.000484   -0.000484   -0.031492

siesta: Pressure (static):         50.45666729  kBar

siesta: Stress tensor (total) (eV/Ang**3):
        -0.031492   -0.000484   -0.000484
        -0.000484   -0.031492   -0.000484
        -0.000484   -0.000484   -0.031492

siesta: Pressure (total):         50.45666729  kBar
FIRE: istep, dt, firenpos, firealf, magv
FIRE:      8    1.2500   1    0.1000      0.0029

siesta: Temp_ion =       0.295 K

                     ====================================
                        Begin MD quenched step =      9
                     ====================================

outcell: Unit cell vectors (Ang):
       10.860000    0.000000    0.000000
        0.000000   10.860000    0.000000
        0.000000    0.000000   10.860000

outcell: Cell vector modules (Ang)   :   10.860000   10.860000   10.860000
outcell: Cell angles (23,13,12) (deg):     90.0000     90.0000     90.0000
outcell: Cell volume (Ang**3)        :   1280.8241
<dSpData1D:S at geom step 9
  <sparsity:sparsity for geom step 9
    nrows_g=257 nrows=48 sparsity=.0850 nnzs=5616, refcount: 7>
  <dData1D:(new from dSpData1D) n=5616, refcount: 1>
refcount: 1>
new_DM -- step:     9
Re-using DM from previous geometries...
Number of DMs in history: 1
 DM extrapolation coefficients: 
1   1.00000
New DM after history re-use:
<dSpData2D:SpM extrapolated using coords
  <sparsity:sparsity for geom step 9
    nrows_g=257 nrows=48 sparsity=.0850 nnzs=5616, refcount: 9>
  <dData2D:(temp array for extrapolation) n=5616 m=1, refcount: 1>
refcount: 1>
No. of atoms with KB's overlaping orbs in proc 0. Max # of overlaps:      34      24
New grid distribution:   1
           1       1:   24    1:   12    1:    6
           2       1:   24    1:   12    7:   12
           3       1:   24    1:   12   13:   18
           4       1:   24    1:   12   19:   24
           5       1:   24   13:   24    1:    6
           6       1:   24   13:   24    7:   12
           7       1:   24   13:   24   13:   18
           8       1:   24   13:   24   19:   24

InitMesh: MESH =    48 x    48 x    48 =      110592
InitMesh: (bp) =    24 x    24 x    24 =       13824
InitMesh: Mesh cutoff (required, used) =    40.000    53.991 Ry
ExtMesh (bp) on 0 =    48 x    36 x    30 =       51840
New grid distribution:   2
           1       1:   12   13:   24   13:   24
           2      13:   24    1:   12    1:   12
           3      13:   24    1:   12   13:   24
           4      13:   24   13:   24    1:   12
           5       1:   12    1:   12   13:   24
           6       1:   12    1:   12    1:   12
           7      13:   24   13:   24   13:   24
           8       1:   12   13:   24    1:   12
New grid distribution:   3
           1       1:   12   13:   24   13:   24
           2      13:   24    1:   12    1:   12
           3      13:   24    1:   12   13:   24
           4      13:   24   13:   24    1:   12
           5       1:   12    1:   12   13:   24
           6       1:   12    1:   12    1:   12
           7      13:   24   13:   24   13:   24
           8       1:   12   13:   24    1:   12
Setting up quadratic distribution...
ExtMesh (bp) on 0 =    36 x    36 x    36 =       46656
PhiOnMesh: Number of (b)points on node 0 =                 1728
PhiOnMesh: nlist on node 0 =                32455

        iscf     Eharris(eV)        E_KS(eV)     FreeEng(eV)     dDmax    Ef(eV) dHmax(eV)
   scf:    1    -6830.689698    -6830.688828    -6830.723485  0.000943 -1.516780  0.012145
   scf:    2    -6830.688531    -6830.688749    -6830.723406  0.001093 -1.510612  0.029604
   scf:    3    -6830.688872    -6830.688847    -6830.723504  0.000752 -1.515153  0.002144
   scf:    4    -6830.688847    -6830.688847    -6830.723505  0.000091 -1.515131  0.001098
   scf:    5    -6830.688847    -6830.688847    -6830.723505  0.000056 -1.515174  0.000128

SCF Convergence by DM+H criterion
max |DM_out - DM_in|         :     0.0000558058
max |H_out - H_in|      (eV) :     0.0001284198
SCF cycle converged after 5 iterations

Using DM_out to compute the final energy and forces
No. of atoms with KB's overlaping orbs in proc 0. Max # of overlaps:      34      24

siesta: E_KS(eV) =            -6830.6888

siesta: Atomic forces (eV/Ang):
----------------------------------------
   Tot   -0.000000    0.000000    0.000000
----------------------------------------
   Max    0.646256
   Res    0.177350    sqrt( Sum f_i^2 / 3N )
----------------------------------------
   Max    0.646256    constrained

Stress tensor Voigt[x,y,z,yz,xz,xy] (kbar):      -50.46      -50.46      -50.46       -0.81       -0.81       -0.81
(Free)E + p*V (eV/cell)    -6790.3886
Target enthalpy (eV/cell)    -6830.7235

siesta: Stress tensor (static) (eV/Ang**3):
        -0.031490   -0.000507   -0.000507
        -0.000507   -0.031490   -0.000507
        -0.000507   -0.000507   -0.031490

siesta: Pressure (static):         50.45323097  kBar

siesta: Stress tensor (total) (eV/Ang**3):
        -0.031491   -0.000508   -0.000508
        -0.000508   -0.031491   -0.000508
        -0.000508   -0.000508   -0.031491

siesta: Pressure (total):         50.45525215  kBar
FIRE: istep, dt, firenpos, firealf, magv
FIRE:      9    1.2500   2    0.1000      0.0057

siesta: Temp_ion =       1.155 K

                     ====================================
                        Begin MD quenched step =     10
                     ====================================

outcell: Unit cell vectors (Ang):
       10.860000    0.000000    0.000000
        0.000000   10.860000    0.000000
        0.000000    0.000000   10.860000

outcell: Cell vector modules (Ang)   :   10.860000   10.860000   10.860000
outcell: Cell angles (23,13,12) (deg):     90.0000     90.0000     90.0000
outcell: Cell volume (Ang**3)        :   1280.8241
<dSpData1D:S at geom step 10
  <sparsity:sparsity for geom step 10
    nrows_g=257 nrows=48 sparsity=.0850 nnzs=5616, refcount: 7>
  <dData1D:(new from dSpData1D) n=5616, refcount: 1>
refcount: 1>
new_DM -- step:    10
Re-using DM from previous geometries...
Number of DMs in history: 1
 DM extrapolation coefficients: 
1   1.00000
New DM after history re-use:
<dSpData2D:SpM extrapolated using coords
  <sparsity:sparsity for geom step 10
    nrows_g=257 nrows=48 sparsity=.0850 nnzs=5616, refcount: 9>
  <dData2D:(temp array for extrapolation) n=5616 m=1, refcount: 1>
refcount: 1>
No. of atoms with KB's overlaping orbs in proc 0. Max # of overlaps:      34      24
New grid distribution:   1
           1       1:   24    1:   12    1:    6
           2       1:   24    1:   12    7:   12
           3       1:   24    1:   12   13:   18
           4       1:   24    1:   12   19:   24
           5       1:   24   13:   24    1:    6
           6       1:   24   13:   24    7:   12
           7       1:   24   13:   24   13:   18
           8       1:   24   13:   24   19:   24

InitMesh: MESH =    48 x    48 x    48 =      110592
InitMesh: (bp) =    24 x    24 x    24 =       13824
InitMesh: Mesh cutoff (required, used) =    40.000    53.991 Ry
ExtMesh (bp) on 0 =    48 x    36 x    30 =       51840
New grid distribution:   2
           1       1:   12   13:   24   13:   24
           2      13:   24    1:   12    1:   12
           3      13:   24    1:   12   13:   24
           4      13:   24   13:   24    1:   12
           5       1:   12    1:   12   13:   24
           6       1:   12    1:   12    1:   12
           7      13:   24   13:   24   13:   24
           8       1:   12   13:   24    1:   12
New grid distribution:   3
           1       1:   12   13:   24   13:   24
           2      13:   24    1:   12    1:   12
           3      13:   24    1:   12   13:   24
           4      13:   24   13:   24    1:   12
           5       1:   12    1:   12   13:   24
           6       1:   12    1:   12    1:   12
           7      13:   24   13:   24   13:   24
           8       1:   12   13:   24    1:   12
Setting up quadratic distribution...
ExtMesh (bp) on 0 =    36 x    36 x    36 =       46656
PhiOnMesh: Number of (b)points on node 0 =                 1728
PhiOnMesh: nlist on node 0 =                32447

        iscf     Eharris(eV)        E_KS(eV)     FreeEng(eV)     dDmax    Ef(eV) dHmax(eV)
   scf:    1    -6830.701416    -6830.700264    -6830.734921  0.001561 -1.511155  0.020543
   scf:    2    -6830.699400    -6830.700033    -6830.734690  0.001835 -1.500670  0.050582
   scf:    3    -6830.700390    -6830.700318    -6830.734975  0.001267 -1.508403  0.003596
   scf:    4    -6830.700319    -6830.700318    -6830.734976  0.000152 -1.508369  0.001837
   scf:    5    -6830.700319    -6830.700318    -6830.734976  0.000095 -1.508441  0.000196

SCF Convergence by DM+H criterion
max |DM_out - DM_in|         :     0.0000950538
max |H_out - H_in|      (eV) :     0.0001963621
SCF cycle converged after 5 iterations

Using DM_out to compute the final energy and forces
No. of atoms with KB's overlaping orbs in proc 0. Max # of overlaps:      34      24

siesta: E_KS(eV) =            -6830.7003

siesta: Atomic forces (eV/Ang):
----------------------------------------
   Tot    0.000000    0.000000   -0.000000
----------------------------------------
   Max    0.623597
   Res    0.171224    sqrt( Sum f_i^2 / 3N )
----------------------------------------
   Max    0.623597    constrained

Stress tensor Voigt[x,y,z,yz,xz,xy] (kbar):      -50.41      -50.41      -50.41       -0.92       -0.92       -0.92
(Free)E + p*V (eV/cell)    -6790.4359
Target enthalpy (eV/cell)    -6830.7350

siesta: Stress tensor (static) (eV/Ang**3):
        -0.031458   -0.000570   -0.000570
        -0.000570   -0.031458   -0.000570
        -0.000570   -0.000570   -0.031458

siesta: Pressure (static):         50.40257204  kBar

siesta: Stress tensor (total) (eV/Ang**3):
        -0.031463   -0.000571   -0.000571
        -0.000571   -0.031463   -0.000571
        -0.000571   -0.000571   -0.031463

siesta: Pressure (total):         50.41048275  kBar
FIRE: istep, dt, firenpos, firealf, magv
FIRE:     10    1.2500   3    0.1000      0.0085

siesta: Temp_ion =       2.535 K

                     ====================================
                        Begin MD quenched step =     11
                     ====================================

outcell: Unit cell vectors (Ang):
       10.860000    0.000000    0.000000
        0.000000   10.860000    0.000000
        0.000000    0.000000   10.860000

outcell: Cell vector modules (Ang)   :   10.860000   10.860000   10.860000
outcell: Cell angles (23,13,12) (deg):     90.0000     90.0000     90.0000
outcell: Cell volume (Ang**3)        :   1280.8241
<dSpData1D:S at geom step 11
  <sparsity:sparsity for geom step 11
    nrows_g=257 nrows=48 sparsity=.0850 nnzs=5616, refcount: 7>
  <dData1D:(new from dSpData1D) n=5616, refcount: 1>
refcount: 1>
new_DM -- step:    11
Re-using DM from previous geometries...
Number of DMs in history: 1
 DM extrapolation coefficients: 
1   1.00000
New DM after history re-use:
<dSpData2D:SpM extrapolated using coords
  <sparsity:sparsity for geom step 11
    nrows_g=257 nrows=48 sparsity=.0850 nnzs=5616, refcount: 9>
  <dData2D:(temp array for extrapolation) n=5616 m=1, refcount: 1>
refcount: 1>
No. of atoms with KB's overlaping orbs in proc 0. Max # of overlaps:      34      24
New grid distribution:   1
           1       1:   24    1:   12    1:    6
           2       1:   24    1:   12    7:   12
           3       1:   24    1:   12   13:   18
           4       1:   24    1:   12   19:   24
           5       1:   24   13:   24    1:    6
           6       1:   24   13:   24    7:   12
           7       1:   24   13:   24   13:   18
           8       1:   24   13:   24   19:   24

InitMesh: MESH =    48 x    48 x    48 =      110592
InitMesh: (bp) =    24 x    24 x    24 =       13824
InitMesh: Mesh cutoff (required, used) =    40.000    53.991 Ry
ExtMesh (bp) on 0 =    48 x    36 x    30 =       51840
New grid distribution:   2
           1       1:   12   13:   24   13:   24
           2      13:   24    1:   12    1:   12
           3      13:   24    1:   12   13:   24
           4      13:   24   13:   24    1:   12
           5       1:   12    1:   12   13:   24
           6       1:   12    1:   12    1:   12
           7      13:   24   13:   24   13:   24
           8       1:   12   13:   24    1:   12
New grid distribution:   3
           1       1:   12   13:   24   13:   24
           2      13:   24    1:   12    1:   12
           3      13:   24    1:   12   13:   24
           4      13:   24   13:   24    1:   12
           5       1:   12    1:   12   13:   24
           6       1:   12    1:   12    1:   12
           7      13:   24   13:   24   13:   24
           8       1:   12   13:   24    1:   12
Setting up quadratic distribution...
ExtMesh (bp) on 0 =    36 x    36 x    36 =       46656
PhiOnMesh: Number of (b)points on node 0 =                 1728
PhiOnMesh: nlist on node 0 =                32455

        iscf     Eharris(eV)        E_KS(eV)     FreeEng(eV)     dDmax    Ef(eV) dHmax(eV)
   scf:    1    -6830.716399    -6830.715337    -6830.749995  0.002166 -1.503058  0.029113
   scf:    2    -6830.713572    -6830.714862    -6830.749519  0.002581 -1.488105  0.072434
   scf:    3    -6830.715591    -6830.715444    -6830.750101  0.001787 -1.499150  0.004989
   scf:    4    -6830.715446    -6830.715445    -6830.750102  0.000209 -1.499106  0.002557
   scf:    5    -6830.715445    -6830.715445    -6830.750103  0.000134 -1.499206  0.000254

SCF Convergence by DM+H criterion
max |DM_out - DM_in|         :     0.0001340203
max |H_out - H_in|      (eV) :     0.0002544337
SCF cycle converged after 5 iterations

Using DM_out to compute the final energy and forces
No. of atoms with KB's overlaping orbs in proc 0. Max # of overlaps:      34      24

siesta: E_KS(eV) =            -6830.7154

siesta: Atomic forces (eV/Ang):
----------------------------------------
   Tot    0.000000   -0.000000    0.000000
----------------------------------------
   Max    0.597537
   Res    0.162670    sqrt( Sum f_i^2 / 3N )
----------------------------------------
   Max    0.597537    constrained

Stress tensor Voigt[x,y,z,yz,xz,xy] (kbar):      -50.53      -50.53      -50.53       -0.97       -0.97       -0.97
(Free)E + p*V (eV/cell)    -6790.3587
Target enthalpy (eV/cell)    -6830.7501

siesta: Stress tensor (static) (eV/Ang**3):
        -0.031525   -0.000604   -0.000604
        -0.000604   -0.031525   -0.000604
        -0.000604   -0.000604   -0.031525

siesta: Pressure (static):         50.50860235  kBar

siesta: Stress tensor (total) (eV/Ang**3):
        -0.031535   -0.000607   -0.000607
        -0.000607   -0.031535   -0.000607
        -0.000607   -0.000607   -0.031535

siesta: Pressure (total):         50.52596656  kBar
FIRE: istep, dt, firenpos, firealf, magv
FIRE:     11    1.2500   4    0.1000      0.0111

siesta: Temp_ion =       4.359 K

                     ====================================
                        Begin MD quenched step =     12
                     ====================================

outcell: Unit cell vectors (Ang):
       10.860000    0.000000    0.000000
        0.000000   10.860000    0.000000
        0.000000    0.000000   10.860000

outcell: Cell vector modules (Ang)   :   10.860000   10.860000   10.860000
outcell: Cell angles (23,13,12) (deg):     90.0000     90.0000     90.0000
outcell: Cell volume (Ang**3)        :   1280.8241
<dSpData1D:S at geom step 12
  <sparsity:sparsity for geom step 12
    nrows_g=257 nrows=48 sparsity=.0850 nnzs=5616, refcount: 7>
  <dData1D:(new from dSpData1D) n=5616, refcount: 1>
refcount: 1>
new_DM -- step:    12
Re-using DM from previous geometries...
Number of DMs in history: 1
 DM extrapolation coefficients: 
1   1.00000
New DM after history re-use:
<dSpData2D:SpM extrapolated using coords
  <sparsity:sparsity for geom step 12
    nrows_g=257 nrows=48 sparsity=.0850 nnzs=5616, refcount: 9>
  <dData2D:(temp array for extrapolation) n=5616 m=1, refcount: 1>
refcount: 1>
No. of atoms with KB's overlaping orbs in proc 0. Max # of overlaps:      34      24
New grid distribution:   1
           1       1:   24    1:   12    1:    6
           2       1:   24    1:   12    7:   12
           3       1:   24    1:   12   13:   18
           4       1:   24    1:   12   19:   24
           5       1:   24   13:   24    1:    6
           6       1:   24   13:   24    7:   12
           7       1:   24   13:   24   13:   18
           8       1:   24   13:   24   19:   24

InitMesh: MESH =    48 x    48 x    48 =      110592
InitMesh: (bp) =    24 x    24 x    24 =       13824
InitMesh: Mesh cutoff (required, used) =    40.000    53.991 Ry
ExtMesh (bp) on 0 =    48 x    36 x    30 =       51840
New grid distribution:   2
           1       1:   12   13:   24   13:   24
           2      13:   24    1:   12    1:   12
           3      13:   24    1:   12   13:   24
           4      13:   24   13:   24    1:   12
           5       1:   12    1:   12   13:   24
           6       1:   12    1:   12    1:   12
           7      13:   24   13:   24   13:   24
           8       1:   12   13:   24    1:   12
New grid distribution:   3
           1       1:   12   13:   24   13:   24
           2      13:   24    1:   12    1:   12
           3      13:   24    1:   12   13:   24
           4      13:   24   13:   24    1:   12
           5       1:   12    1:   12   13:   24
           6       1:   12    1:   12    1:   12
           7      13:   24   13:   24   13:   24
           8       1:   12   13:   24    1:   12
Setting up quadratic distribution...
ExtMesh (bp) on 0 =    36 x    36 x    36 =       46656
PhiOnMesh: Number of (b)points on node 0 =                 1728
PhiOnMesh: nlist on node 0 =                32463

        iscf     Eharris(eV)        E_KS(eV)     FreeEng(eV)     dDmax    Ef(eV) dHmax(eV)
   scf:    1    -6830.733550    -6830.733059    -6830.767717  0.002702 -1.492200  0.037293
   scf:    2    -6830.730076    -6830.732252    -6830.766909  0.003279 -1.473017  0.094022
   scf:    3    -6830.733479    -6830.733233    -6830.767891  0.002280 -1.487237  0.006530
   scf:    4    -6830.733237    -6830.733235    -6830.767893  0.000271 -1.487196  0.003303
   scf:    5    -6830.733236    -6830.733236    -6830.767893  0.000176 -1.487328  0.000293

SCF Convergence by DM+H criterion
max |DM_out - DM_in|         :     0.0001757688
max |H_out - H_in|      (eV) :     0.0002929461
SCF cycle converged after 5 iterations

[...]
<dSpData1D:S at geom step 66
  <sparsity:sparsity for geom step 66
    nrows_g=257 nrows=48 sparsity=.0850 nnzs=5616, refcount: 7>
  <dData1D:(new from dSpData1D) n=5616, refcount: 1>
refcount: 1>
new_DM -- step:    66
Re-using DM from previous geometries...
Number of DMs in history: 1
 DM extrapolation coefficients: 
1   1.00000
New DM after history re-use:
<dSpData2D:SpM extrapolated using coords
  <sparsity:sparsity for geom step 66
    nrows_g=257 nrows=48 sparsity=.0850 nnzs=5616, refcount: 9>
  <dData2D:(temp array for extrapolation) n=5616 m=1, refcount: 1>
refcount: 1>
No. of atoms with KB's overlaping orbs in proc 0. Max # of overlaps:      34      24
New grid distribution:   1
           1       1:   24    1:   12    1:    6
           2       1:   24    1:   12    7:   12
           3       1:   24    1:   12   13:   18
           4       1:   24    1:   12   19:   24
           5       1:   24   13:   24    1:    6
           6       1:   24   13:   24    7:   12
           7       1:   24   13:   24   13:   18
           8       1:   24   13:   24   19:   24

InitMesh: MESH =    48 x    48 x    48 =      110592
InitMesh: (bp) =    24 x    24 x    24 =       13824
InitMesh: Mesh cutoff (required, used) =    40.000    53.991 Ry
ExtMesh (bp) on 0 =    48 x    36 x    30 =       51840
New grid distribution:   2
           1       1:   12   13:   24   13:   24
           2      13:   24    1:   12    1:   12
           3      13:   24    1:   12   13:   24
           4      13:   24   13:   24    1:   12
           5       1:   12    1:   12   13:   24
           6       1:   12    1:   12    1:   12
           7      13:   24   13:   24   13:   24
           8       1:   12   13:   24    1:   12
New grid distribution:   3
           1       1:   12   13:   24   13:   24
           2      13:   24    1:   12    1:   12
           3      13:   24    1:   12   13:   24
           4      13:   24   13:   24    1:   12
           5       1:   12    1:   12   13:   24
           6       1:   12    1:   12    1:   12
           7      13:   24   13:   24   13:   24
           8       1:   12   13:   24    1:   12
Setting up quadratic distribution...
ExtMesh (bp) on 0 =    36 x    36 x    36 =       46656
PhiOnMesh: Number of (b)points on node 0 =                 1728
PhiOnMesh: nlist on node 0 =                32383

        iscf     Eharris(eV)        E_KS(eV)     FreeEng(eV)     dDmax    Ef(eV) dHmax(eV)
   scf:    1    -6830.882476    -6830.881837    -6830.916494  0.000159 -1.331294  0.006007
   scf:    2    -6830.881748    -6830.881813    -6830.916470  0.000311 -1.328581  0.015191
   scf:    3    -6830.881850    -6830.881842    -6830.916500  0.000222 -1.330537  0.000513

SCF Convergence by DM+H criterion
max |DM_out - DM_in|         :     0.0002215170
max |H_out - H_in|      (eV) :     0.0005132628
SCF cycle converged after 3 iterations

Using DM_out to compute the final energy and forces
No. of atoms with KB's overlaping orbs in proc 0. Max # of overlaps:      34      24

siesta: E_KS(eV) =            -6830.8818

siesta: Atomic forces (eV/Ang):
----------------------------------------
   Tot   -0.000000    0.000000    0.000000
----------------------------------------
   Max    0.015353
   Res    0.005177    sqrt( Sum f_i^2 / 3N )
----------------------------------------
   Max    0.015353    constrained

Stress tensor Voigt[x,y,z,yz,xz,xy] (kbar):      -50.87      -50.87      -50.87       -2.98       -2.98       -2.98
(Free)E + p*V (eV/cell)    -6790.2526
Target enthalpy (eV/cell)    -6830.9165

siesta: Stress tensor (static) (eV/Ang**3):
        -0.031748   -0.001858   -0.001858
        -0.001858   -0.031748   -0.001858
        -0.001858   -0.001858   -0.031748

siesta: Pressure (static):         50.86660739  kBar

siesta: Stress tensor (total) (eV/Ang**3):
        -0.031748   -0.001858   -0.001858
        -0.001858   -0.031748   -0.001858
        -0.001858   -0.001858   -0.031748

siesta: Pressure (total):         50.86678763  kBar
FIRE: istep, dt, firenpos, firealf, magv
FIRE:     66    3.6289   5    0.1000      0.0010

siesta: Temp_ion =       0.029 K

                     ====================================
                        Begin MD quenched step =     67
                     ====================================

outcell: Unit cell vectors (Ang):
       10.860000    0.000000    0.000000
        0.000000   10.860000    0.000000
        0.000000    0.000000   10.860000

outcell: Cell vector modules (Ang)   :   10.860000   10.860000   10.860000
outcell: Cell angles (23,13,12) (deg):     90.0000     90.0000     90.0000
outcell: Cell volume (Ang**3)        :   1280.8241
<dSpData1D:S at geom step 67
  <sparsity:sparsity for geom step 67
    nrows_g=257 nrows=48 sparsity=.0850 nnzs=5616, refcount: 7>
  <dData1D:(new from dSpData1D) n=5616, refcount: 1>
refcount: 1>
new_DM -- step:    67
Re-using DM from previous geometries...
Number of DMs in history: 1
 DM extrapolation coefficients: 
1   1.00000
New DM after history re-use:
<dSpData2D:SpM extrapolated using coords
  <sparsity:sparsity for geom step 67
    nrows_g=257 nrows=48 sparsity=.0850 nnzs=5616, refcount: 9>
  <dData2D:(temp array for extrapolation) n=5616 m=1, refcount: 1>
refcount: 1>
No. of atoms with KB's overlaping orbs in proc 0. Max # of overlaps:      34      24
New grid distribution:   1
           1       1:   24    1:   12    1:    6
           2       1:   24    1:   12    7:   12
           3       1:   24    1:   12   13:   18
           4       1:   24    1:   12   19:   24
           5       1:   24   13:   24    1:    6
           6       1:   24   13:   24    7:   12
           7       1:   24   13:   24   13:   18
           8       1:   24   13:   24   19:   24

InitMesh: MESH =    48 x    48 x    48 =      110592
InitMesh: (bp) =    24 x    24 x    24 =       13824
InitMesh: Mesh cutoff (required, used) =    40.000    53.991 Ry
ExtMesh (bp) on 0 =    48 x    36 x    30 =       51840
New grid distribution:   2
           1       1:   12   13:   24   13:   24
           2      13:   24    1:   12    1:   12
           3      13:   24    1:   12   13:   24
           4      13:   24   13:   24    1:   12
           5       1:   12    1:   12   13:   24
           6       1:   12    1:   12    1:   12
           7      13:   24   13:   24   13:   24
           8       1:   12   13:   24    1:   12
New grid distribution:   3
           1       1:   12   13:   24   13:   24
           2      13:   24    1:   12    1:   12
           3      13:   24    1:   12   13:   24
           4      13:   24   13:   24    1:   12
           5       1:   12    1:   12   13:   24
           6       1:   12    1:   12    1:   12
           7      13:   24   13:   24   13:   24
           8       1:   12   13:   24    1:   12
Setting up quadratic distribution...
ExtMesh (bp) on 0 =    36 x    36 x    36 =       46656
PhiOnMesh: Number of (b)points on node 0 =                 1728
PhiOnMesh: nlist on node 0 =                32391

        iscf     Eharris(eV)        E_KS(eV)     FreeEng(eV)     dDmax    Ef(eV) dHmax(eV)
   scf:    1    -6830.882603    -6830.881900    -6830.916558  0.000184 -1.331340  0.007290
   scf:    2    -6830.881734    -6830.881854    -6830.916511  0.000352 -1.327781  0.020667
   scf:    3    -6830.881921    -6830.881908    -6830.916566  0.000265 -1.330431  0.000494

SCF Convergence by DM+H criterion
max |DM_out - DM_in|         :     0.0002646351
max |H_out - H_in|      (eV) :     0.0004940057
SCF cycle converged after 3 iterations

Using DM_out to compute the final energy and forces
No. of atoms with KB's overlaping orbs in proc 0. Max # of overlaps:      34      24

siesta: E_KS(eV) =            -6830.8819

siesta: Atomic forces (eV/Ang):
----------------------------------------
   Tot   -0.000000   -0.000000   -0.000000
----------------------------------------
   Max    0.012163
   Res    0.004022    sqrt( Sum f_i^2 / 3N )
----------------------------------------
   Max    0.012163    constrained

Stress tensor Voigt[x,y,z,yz,xz,xy] (kbar):      -50.87      -50.87      -50.87       -3.00       -3.00       -3.00
(Free)E + p*V (eV/cell)    -6790.2523
Target enthalpy (eV/cell)    -6830.9166

siesta: Stress tensor (static) (eV/Ang**3):
        -0.031748   -0.001873   -0.001873
        -0.001873   -0.031748   -0.001873
        -0.001873   -0.001873   -0.031748

siesta: Pressure (static):         50.86714704  kBar

siesta: Stress tensor (total) (eV/Ang**3):
        -0.031749   -0.001873   -0.001873
        -0.001873   -0.031749   -0.001873
        -0.001873   -0.001873   -0.031749

siesta: Pressure (total):         50.86734391  kBar
FIRE: istep, dt, firenpos, firealf, magv
FIRE:     67    3.6289   6    0.1000      0.0010

siesta: Temp_ion =       0.034 K

                     ====================================
                        Begin MD quenched step =     68
                     ====================================

outcell: Unit cell vectors (Ang):
       10.860000    0.000000    0.000000
        0.000000   10.860000    0.000000
        0.000000    0.000000   10.860000

outcell: Cell vector modules (Ang)   :   10.860000   10.860000   10.860000
outcell: Cell angles (23,13,12) (deg):     90.0000     90.0000     90.0000
outcell: Cell volume (Ang**3)        :   1280.8241
<dSpData1D:S at geom step 68
  <sparsity:sparsity for geom step 68
    nrows_g=257 nrows=48 sparsity=.0850 nnzs=5616, refcount: 7>
  <dData1D:(new from dSpData1D) n=5616, refcount: 1>
refcount: 1>
new_DM -- step:    68
Re-using DM from previous geometries...
Number of DMs in history: 1
 DM extrapolation coefficients: 
1   1.00000
New DM after history re-use:
<dSpData2D:SpM extrapolated using coords
  <sparsity:sparsity for geom step 68
    nrows_g=257 nrows=48 sparsity=.0850 nnzs=5616, refcount: 9>
  <dData2D:(temp array for extrapolation) n=5616 m=1, refcount: 1>
refcount: 1>
No. of atoms with KB's overlaping orbs in proc 0. Max # of overlaps:      34      24
New grid distribution:   1
           1       1:   24    1:   12    1:    6
           2       1:   24    1:   12    7:   12
           3       1:   24    1:   12   13:   18
           4       1:   24    1:   12   19:   24
           5       1:   24   13:   24    1:    6
           6       1:   24   13:   24    7:   12
           7       1:   24   13:   24   13:   18
           8       1:   24   13:   24   19:   24

InitMesh: MESH =    48 x    48 x    48 =      110592
InitMesh: (bp) =    24 x    24 x    24 =       13824
InitMesh: Mesh cutoff (required, used) =    40.000    53.991 Ry
ExtMesh (bp) on 0 =    48 x    36 x    30 =       51840
New grid distribution:   2
           1       1:   12   13:   24   13:   24
           2      13:   24    1:   12    1:   12
           3      13:   24    1:   12   13:   24
           4      13:   24   13:   24    1:   12
           5       1:   12    1:   12   13:   24
           6       1:   12    1:   12    1:   12
           7      13:   24   13:   24   13:   24
           8       1:   12   13:   24    1:   12
New grid distribution:   3
           1       1:   12   13:   24   13:   24
           2      13:   24    1:   12    1:   12
           3      13:   24    1:   12   13:   24
           4      13:   24   13:   24    1:   12
           5       1:   12    1:   12   13:   24
           6       1:   12    1:   12    1:   12
           7      13:   24   13:   24   13:   24
           8       1:   12   13:   24    1:   12
Setting up quadratic distribution...
ExtMesh (bp) on 0 =    36 x    36 x    36 =       46656
PhiOnMesh: Number of (b)points on node 0 =                 1728
PhiOnMesh: nlist on node 0 =                32391

        iscf     Eharris(eV)        E_KS(eV)     FreeEng(eV)     dDmax    Ef(eV) dHmax(eV)
   scf:    1    -6830.882649    -6830.881954    -6830.916611  0.000237 -1.331489  0.008513
   scf:    2    -6830.881670    -6830.881873    -6830.916530  0.000393 -1.327143  0.026227
   scf:    3    -6830.881986    -6830.881965    -6830.916623  0.000307 -1.330449  0.000422

SCF Convergence by DM+H criterion
max |DM_out - DM_in|         :     0.0003074857
max |H_out - H_in|      (eV) :     0.0004222384
SCF cycle converged after 3 iterations

Using DM_out to compute the final energy and forces
No. of atoms with KB's overlaping orbs in proc 0. Max # of overlaps:      34      24

siesta: E_KS(eV) =            -6830.8820

siesta: Atomic forces (eV/Ang):
----------------------------------------
   Tot   -0.000000   -0.000000   -0.000000
----------------------------------------
   Max    0.006870
   Res    0.002678    sqrt( Sum f_i^2 / 3N )
----------------------------------------
   Max    0.006870    constrained

Stress tensor Voigt[x,y,z,yz,xz,xy] (kbar):      -50.88      -50.88      -50.88       -3.04       -3.04       -3.04
(Free)E + p*V (eV/cell)    -6790.2461
Target enthalpy (eV/cell)    -6830.9166

siesta: Stress tensor (static) (eV/Ang**3):
        -0.031753   -0.001895   -0.001895
        -0.001895   -0.031753   -0.001895
        -0.001895   -0.001895   -0.031753

siesta: Pressure (static):         50.87492653  kBar

siesta: Stress tensor (total) (eV/Ang**3):
        -0.031753   -0.001895   -0.001895
        -0.001895   -0.031753   -0.001895
        -0.001895   -0.001895   -0.031753

siesta: Pressure (total):         50.87516019  kBar

outcoor: Relaxed atomic coordinates (scaled):               
    0.00003134    0.00003134    0.00003134   1       1  Si
    0.24996866    0.24996866    0.24996866   1       2  Si
   -0.00170142    0.49955598    0.49955598   1       3  Si
    0.24964404    0.74890222    0.74890222   1       4  Si
    0.49955598   -0.00170142    0.49955598   1       5  Si
    0.74890222    0.24964404    0.74890222   1       6  Si
    0.49955598    0.49955598   -0.00170142   1       7  Si
    0.74890222    0.74890222    0.24964404   1       8  Si
    0.99988295    0.00178259    0.00178259   1       9  Si
    1.25011705    0.24821741    0.24821741   1      10  Si
    0.99885097    0.49480518    0.49480518   1      11  Si
    1.25182688    0.73889755    0.73889755   1      12  Si
    1.49892747    0.00027352    0.50047594   1      13  Si
    1.74952406    0.24972648    0.75107253   1      14  Si
    1.49892747    0.50047594    0.00027352   1      15  Si
    1.74952406    0.75107253    0.24972648   1      16  Si
    0.00178259    0.99988295    0.00178259   1      17  Si
    0.24821741    1.25011705    0.24821741   1      18  Si
    0.00027352    1.49892747    0.50047594   1      19  Si
    0.24972648    1.74952406    0.75107253   1      20  Si
    0.49480518    0.99885097    0.49480518   1      21  Si
    0.73889755    1.25182688    0.73889755   1      22  Si
    0.50047594    1.49892747    0.00027352   1      23  Si
    0.75107253    1.74952406    0.24972648   1      24  Si
    0.00178259    0.00178259    0.99988295   1      25  Si
    0.24821741    0.24821741    1.25011705   1      26  Si
    0.00027352    0.50047594    1.49892747   1      27  Si
    0.24972648    0.75107253    1.74952406   1      28  Si
    0.50047594    0.00027352    1.49892747   1      29  Si
    0.75107253    0.24972648    1.74952406   1      30  Si
    0.49480518    0.49480518    0.99885097   1      31  Si
    0.73889755    0.73889755    1.25182688   1      32  Si
    0.99960595    0.99960595    0.00111246   1      33  Si
    1.25039405    1.25039405    0.24888754   1      34  Si
    1.00127997    1.49919797    0.49955146   1      35  Si
    1.24872003    1.75044854    0.75080203   1      36  Si
    1.49919797    1.00127997    0.49955146   1      37  Si
    1.75044855    1.24872003    0.75080203   1      38  Si
    1.50109778    1.50109778    0.00035596   1      39  Si
    1.75044402    1.75044402    0.25170142   1      40  Si
    0.99960595    0.00111246    0.99960595   1      41  Si
    1.25039405    0.24888754    1.25039405   1      42  Si
    1.00127997    0.49955146    1.49919798   1      43  Si
    1.24872003    0.75080203    1.75044854   1      44  Si
    1.50109778    0.00035596    1.50109778   1      45  Si
    1.75044402    0.25170142    1.75044402   1      46  Si
    1.49919797    0.49955146    1.00127997   1      47  Si
    1.75044854    0.75080203    1.24872003   1      48  Si
    0.00111246    0.99960595    0.99960595   1      49  Si
    0.24888754    1.25039405    1.25039405   1      50  Si
    0.00035596    1.50109778    1.50109778   1      51  Si
    0.25170142    1.75044402    1.75044402   1      52  Si
    0.49955146    1.00127997    1.49919797   1      53  Si
    0.75080203    1.24872003    1.75044855   1      54  Si
    0.49955146    1.49919797    1.00127997   1      55  Si
    0.75080203    1.75044855    1.24872003   1      56  Si
    0.95050167    0.95050167    0.95050167   1      57  Si
    1.29949831    1.29949831    1.29949831   1      58  Si
    0.99817312    1.51110245    1.51110244   1      59  Si
    1.25114904    1.75519482    1.75519482   1      60  Si
    1.51110245    0.99817312    1.51110245   1      61  Si
    1.75519482    1.25114904    1.75519482   1      62  Si
    1.51110245    1.51110245    0.99817312   1      63  Si
    1.75519482    1.75519482    1.25114904   1      64  Si
    1.12499999    1.12499999    1.12499999   2      65  H

siesta: Program's energy decomposition (eV):
siesta: Ebs     =     -2019.264086
siesta: Eions   =     12205.375272
siesta: Ena     =      3580.580177
siesta: Ekin    =      2733.209024
siesta: Enl     =       960.447516
siesta: Eso     =         0.000000
siesta: Edftu   =         0.000000
siesta: DEna    =       195.273291
siesta: DUscf   =         5.414802
siesta: DUext   =         0.000000
siesta: Exc     =     -2100.431505
siesta: eta*DQ  =         0.000000
siesta: Emadel  =         0.000000
siesta: Emeta   =         0.000000
siesta: Emolmec =         0.000000
siesta: Ekinion =         0.000282
siesta: Eharris =     -6830.881704
siesta: Etot    =     -6830.881683
siesta: FreeEng =     -6830.916340

siesta: Final energy (eV):
siesta:  Band Struct. =   -2019.264086
siesta:       Kinetic =    2733.209024
siesta:       Hartree =     493.999665
siesta:       Edftu   =       0.000000
siesta:       Eso     =       0.000000
siesta:    Ext. field =       0.000000
siesta:   Exch.-corr. =   -2100.431505
siesta:  Ion-electron =   -3001.657745
siesta:       Ion-ion =   -4956.001405
siesta:       Ekinion =       0.000282
siesta:         Total =   -6830.881683
siesta:         Fermi =      -1.330449

siesta: Stress tensor (static) (eV/Ang**3):
siesta:    -0.031753   -0.001895   -0.001895
siesta:    -0.001895   -0.031753   -0.001895
siesta:    -0.001895   -0.001895   -0.031753

siesta: Cell volume =       1280.824056 Ang**3

siesta: Pressure (static):
siesta:                Solid            Molecule  Units
siesta:           0.00034583          0.00034474  Ry/Bohr**3
siesta:           0.03175329          0.03165245  eV/Ang**3
siesta:          50.87492653         50.71336116  kBar
(Free)E+ p_basis*V_orbitals  =       -6818.362643
(Free)Eharris+ p_basis*V_orbitals  =       -6818.362664

cite: Please see "sih_fire.bib" for an exhaustive BiBTeX file.
cite: Please clearly indicate Siesta version in published work: v4.1-b4-351
cite: This calculation has made use of the following articles
cite: which are encouraged to be cited in a published work.
        Primary SIESTA paper
          DOI: www.doi.org/10.1088/0953-8984/14/11/302

>> End of run:  22-JAN-2021  23:27:26
Job completed
[1611354446.669098] [n-62-21-35:27455:0]          mpool.c:42   UCX  WARN  object 0x3d91700 was not returned to mpool ucp_requests
[1611354446.669201] [n-62-21-35:27460:0]          mpool.c:42   UCX  WARN  object 0x2abd540 was not returned to mpool ucp_requests
[1611354446.669569] [n-62-21-35:27457:0]          mpool.c:42   UCX  WARN  object 0x3b18540 was not returned to mpool ucp_requests
[1611354446.670916] [n-62-21-35:27451:0]          mpool.c:42   UCX  WARN  object 0x2d0f700 was not returned to mpool ucp_requests
