Siesta Version  : v4.1-b4-351
Architecture    : x86_64-linux-n-62-26-19
Compiler version: GNU Fortran (GCC) 9.3.0
Compiler flags  : mpifort -m64 -fPIC -O3 -march=native -ftree-vectorize -fexpensive-optimizatioons -funroll-loops -fprefetch-loop-arrays -fno-second-underscore  -flto
PP flags        : -I/dtu/sw/dcc/SL73/2020-aug/generic/build-tools/1.0/include -I/dtu/sw/dcc/SL773/2020-aug/generic/gcc/9.3.0/include -I/dtu/sw/dcc/SL73/2020-aug/generic/gcc/9.3.0/include -I/dtu/sw/dcc/SL73/2020-aug/XeonE5-2660v3/gnu/9.3.0/zlib/1.2.11/include -I/dtu/sw/dcc/SL73/2020-aug/generic/numactl/2.0.12/include -I/dtu/sw/dcc/SL73/2020-aug/XeonE5-2660v3/gnu/9.3.0/libxml2/2.9.10/include -I/dtu/sw/dcc/SL73/2020-aug/XeonE5-2660v3/gnu/9.3.0/hwloc/2.2.0/include -I/dtu/sw/dcc/SL73/2020-aug/XeonE5-2660v3/gnu/9.3.0/knem/1.1.4/include -I/dtu/sw/dcc/SL73/2020-aug/XeonE5-2660v3/gnu/9.3.0/ucx/1.8.1/include -I/dtu/sw/dcc/SL73/2020-aug/XeonE5-2660v3/gnu/9.3.0/openmpi/4.0.4/include -I/dtu/sw/dcc/SL73/2020-aug/XeonE5-2660v3/gnu/9.3.0/szip/2.1.1/include -I/dtu/sw/dcc/SL73/2020-aug/XeonE5-2660v3/gnu/9.3.0/hdf5/1.12.0/include -I/dtu/sw/dcc/SL73/2020-aug/XeonE5-2660v3/gnu/9.3.0/pnetcdf/1.12.1/include -I/dtu/sw/dcc/SL73/2020-aug/generic/gen-zlib/1.2.11/include -I/dtu/sw/dcc/SL73/2020-aug/generic/openssl/1.1.1/include -I/dtu/sw/dcc/SL73/2020-aug/generic/libssh2/1.8.2/include -I/dtu/sw/dcc/SL73/2020-aug/generic/curl/7.65.1/include -I/dtu/sw/dcc/SL73/2020-aug/XeonE5-2660v3/gnu/9.3.0/netcdf/4.7.4/include -I/dtu/sw/dcc/SL73/2020-aug/XeonE5-2660v3/gnu/9.3.0/flook/0.8.1/include -I/dtu/sw/dcc/SL73/2020-aug/XeonE5-2660v3/gnu/9.3.0/fftw/3.3.8/include -I/dtu/sw/dcc/SL73/2020-aug/XeonE5-2660v3/gnu/9.3.0/parmetis/4.0.3/include -I/dtu/sw/dcc/SL73/2020-aug/XeonE5-2660v3/gnu/9.3.0/scalapack/2.1.0/include -I/dtu/sw/dcc/SL73/2020-aug/XeonE5-2660v3/gnu/9.3.0/lapack/3.9.0/include -I/dtu/sw/dcc/SL73/2020-aug/XeonE5-2660v3/gnu/9.3.0/blis/0.7.0/include -I/dtu/sw/dcc/SL73/2020-aug/XeonE5-2660v3/gnu/9.3.0/scotch/6.0.9/include -I/dtu/sw/dcc/SL73/2020-aug/XeonE5-2660v3/gnu/9.3.0/mumps/5.3.3/include -I/dtu/sw/dcc/SL73/2020-aug/XeonE5-2660v3/gnu/9.3.0/elpa/2020.05.001/include -DSIESTA__ELPA -DMPI -DFC_HAVE_FLUSH -DFC_HAVE_ABORT -DCDF -DCDF4 -DSIESTA__FLOOK  -DNCDF -DNCDF_4 -DNCDF_PARALLEL -DTS_NOCHECKS -DSIESTA__METIS -DSIESTA__MUMPS -DSIESTA__MRRR -I/dtu/sw/dcc/SL73/2020-aug/XeonE5-2660v3/gnu/9.3.0/elpa/2020.05.001/include/elpa
Libraries       : libncdf.a libfdict.a -lnetcdff -lnetcdf -lpnetcdf -lhdf5_hl -lhdf5 -lz  -lzmuumps -lmumps_common -lesmumps -lscotch -lscotcherr -lpord -lparmetis -lmetis -lelpa -lscalapack -llapack -lblis  -L/dtu/sw/dcc/SL73/2020-aug/XeonE5-2660v3/gnu/9.3.0/flook/0.8.1/lib -Wl,-rpath=/dtu/sw/dcc/SL73/2020-aug/XeonE5-2660v3/gnu/9.3.0/flook/0.8.1/lib -lflookall -ldl  -flto -fuse-linker-plugin  -lmetis
PARALLEL version
NetCDF support
NetCDF-4 support
NetCDF-4 MPI-IO support
METIS ordering support
Lua support

* Running on 8 nodes in parallel
>> Start of run:  22-JAN-2021  23:28:13

                           ***********************       
                           *  WELCOME TO SIESTA  *       
                           ***********************       

reinit: Reading from ../sinw_2.fdf

reinit: -----------------------------------------------------------------------
reinit: System Name: wire110_2d1
reinit: -----------------------------------------------------------------------
reinit: System Label: sinw_2
reinit: -----------------------------------------------------------------------

initatom: Reading input for the pseudopotentials and atomic orbitals ----------
Species number:   1 Atomic number:   14 Label: Si
Species number:   2 Atomic number:    1 Label: H

Ground state valence configuration:   3s02  3p02
Reading pseudopotential information in formatted form from Si.psf

Valence configuration for pseudopotential generation:
3s( 2.00) rc: 1.89
3p( 2.00) rc: 1.89
3d( 0.00) rc: 1.89
4f( 0.00) rc: 1.89
Ground state valence configuration:   1s01
Reading pseudopotential information in formatted form from H.psf

Valence configuration for pseudopotential generation:
1s( 1.00) rc: 1.25
2p( 0.00) rc: 1.25
3d( 0.00) rc: 1.25
4f( 0.00) rc: 1.25
For Si, standard SIESTA heuristics set lmxkb to 2
 (one more than the basis l, including polarization orbitals).
Use PS.lmax or PS.KBprojectors blocks to override.
For H, standard SIESTA heuristics set lmxkb to 1
 (one more than the basis l, including polarization orbitals).
Use PS.lmax or PS.KBprojectors blocks to override.

<basis_specs>
===============================================================================
Si                   Z=  14    Mass=  28.090        Charge=-0.39129    
Lmxo=1 Lmxkb= 2    BasisType=split      Semic=F
L=0  Nsemic=0  Cnfigmx=3
          i=1  nzeta=1  polorb=0  (3s)
            splnorm:   0.15000    
               vcte:    5.8993    
               rinn:    4.3953    
               qcoe:    0.0000    
               qyuk:    0.0000    
               qwid:   0.10000E-01
                rcs:    6.0000    
            lambdas:    1.0000    
L=1  Nsemic=0  Cnfigmx=3
          i=1  nzeta=1  polorb=0  (3p)
            splnorm:   0.15000    
               vcte:    3.5538    
               rinn:    3.5541    
               qcoe:    0.0000    
               qyuk:    0.0000    
               qwid:   0.10000E-01
                rcs:    6.0000    
            lambdas:    1.0000    
-------------------------------------------------------------------------------
L=0  Nkbl=1  erefs: 0.17977+309
L=1  Nkbl=1  erefs: 0.17977+309
L=2  Nkbl=1  erefs: 0.17977+309
===============================================================================
</basis_specs>

atom: Called for Si                    (Z =  14)

read_vps: Pseudopotential generation method:
read_vps: ATM3      Troullier-Martins                       
Valence charge for ps generation:    4.00000

xc_check: Exchange-correlation functional:
xc_check: GGA Perdew, Burke & Ernzerhof 1996
xc_check: WARNING: Pseudopotential generated with LDA CA functional
V l=0 = -2*Zval/r beyond r=  2.5494
V l=1 = -2*Zval/r beyond r=  2.5494
V l=2 = -2*Zval/r beyond r=  2.5494
All V_l potentials equal beyond r=  1.8652
This should be close to max(r_c) in ps generation
All pots = -2*Zval/r beyond r=  2.5494
Using large-core scheme for Vlocal

atom: Estimated core radius    2.54944

atom: Including non-local core corrections could be a good idea
atom: Maximum radius for 4*pi*r*r*local-pseudopot. charge    2.85303
atom: Maximum radius for r*vlocal+2*Zval:    2.58151
GHOST: No ghost state for L =  0
GHOST: No ghost state for L =  1
GHOST: No ghost state for L =  2

KBgen: Kleinman-Bylander projectors: 
   l= 0   rc=  1.936440   el= -0.807387   Ekb=  4.637207   kbcos=  0.300267
   l= 1   rc=  1.936440   el= -0.312019   Ekb=  1.490013   kbcos=  0.306600
   l= 2   rc=  1.936440   el=  0.001958   Ekb= -2.804484   kbcos= -0.055139

KBgen: Total number of  Kleinman-Bylander projectors:    9
atom: -------------------------------------------------------------------------

atom: SANKEY-TYPE ORBITALS:

atom: basis set generated (by rescaling the valence charge)
atom: for an anion of charge  -0.3913

SPLIT: Orbitals with angular momentum L= 0

SPLIT: Basis orbitals for state 3s

   izeta = 1
                 lambda =    1.000000
                     rc =    5.965023
                 energy =   -0.802159
                kinetic =    0.512790
    potential(screened) =   -1.314949
       potential(ionic) =   -3.737508

SPLIT: Orbitals with angular momentum L= 1

SPLIT: Basis orbitals for state 3p

   izeta = 1
                 lambda =    1.000000
                     rc =    5.965023
                 energy =   -0.286267
                kinetic =    0.909128
    potential(screened) =   -1.195396
       potential(ionic) =   -3.470038
atom: Total number of Sankey-type orbitals:  4

atm_pop: Valence configuration (for local Pseudopot. screening):
 3s( 2.00)                                                            
 3p( 2.00)                                                            
Vna: chval, zval:    4.00000   4.00000

Vna:  Cut-off radius for the neutral-atom potential:   5.965023

atom: _________________________________________________________________________

<basis_specs>
===============================================================================
H                    Z=   1    Mass=  1.0100        Charge= 0.17977+309
Lmxo=0 Lmxkb= 1    BasisType=split      Semic=F
L=0  Nsemic=0  Cnfigmx=1
          i=1  nzeta=1  polorb=0  (1s)
            splnorm:   0.15000    
               vcte:    0.0000    
               rinn:    0.0000    
               qcoe:    0.0000    
               qyuk:    0.0000    
               qwid:   0.10000E-01
                rcs:    0.0000    
            lambdas:   0.75000    
-------------------------------------------------------------------------------
L=0  Nkbl=1  erefs: 0.17977+309
L=1  Nkbl=1  erefs: 0.17977+309
===============================================================================
</basis_specs>

atom: Called for H                     (Z =   1)

read_vps: Pseudopotential generation method:
read_vps: ATM3      Troullier-Martins                       
Valence charge for ps generation:    1.00000

xc_check: Exchange-correlation functional:
xc_check: GGA Perdew, Burke & Ernzerhof 1996
xc_check: WARNING: Pseudopotential generated with LDA CA functional
V l=0 = -2*Zval/r beyond r=  1.2343
V l=1 = -2*Zval/r beyond r=  1.2189
All V_l potentials equal beyond r=  1.2343
This should be close to max(r_c) in ps generation
All pots = -2*Zval/r beyond r=  1.2343

VLOCAL1: 99.0% of the norm of Vloc inside     28.493 Ry
VLOCAL1: 99.9% of the norm of Vloc inside     64.935 Ry
atom: Maximum radius for 4*pi*r*r*local-pseudopot. charge    1.45251
atom: Maximum radius for r*vlocal+2*Zval:    1.21892
GHOST: No ghost state for L =  0
GHOST: No ghost state for L =  1

KBgen: Kleinman-Bylander projectors: 
   l= 0   rc=  1.364359   el= -0.488086   Ekb= -2.002077   kbcos= -0.347561
   l= 1   rc=  1.434438   el=  0.001075   Ekb= -0.501617   kbcos= -0.021754

KBgen: Total number of  Kleinman-Bylander projectors:    4
atom: -------------------------------------------------------------------------

atom: SANKEY-TYPE ORBITALS:

SPLIT: Orbitals with angular momentum L= 0

SPLIT: Basis orbitals for state 1s

SPLIT: PAO cut-off radius determined from an
SPLIT: energy shift=  0.020000 Ry

   izeta = 1
                 lambda =    0.750000
                     rc =    4.650237
                 energy =   -0.368337
                kinetic =    1.592356
    potential(screened) =   -1.960693
       potential(ionic) =   -2.490339
atom: Total number of Sankey-type orbitals:  1

atm_pop: Valence configuration (for local Pseudopot. screening):
 1s( 1.00)                                                            
Vna: chval, zval:    1.00000   1.00000

Vna:  Cut-off radius for the neutral-atom potential:   4.650465

atom: _________________________________________________________________________

prinput: Basis input ----------------------------------------------------------

PAO.BasisType split     

%block ChemicalSpeciesLabel
    1   14 Si                      # Species index, atomic number, species label
    2    1 H                       # Species index, atomic number, species label
%endblock ChemicalSpeciesLabel

%block PAO.Basis                 # Define Basis set
Si                    2  -0.391            # Label, l-shells, ionic net charge
 n=3   0   1                         # n, l, Nzeta 
   5.965   
   1.000   
 n=3   1   1                         # n, l, Nzeta 
   5.965   
   1.000   
H                     1                    # Species label, number of l-shells
 n=1   0   1                         # n, l, Nzeta 
   4.650   
   0.750   
%endblock PAO.Basis

prinput: ----------------------------------------------------------------------

Dumping basis to NetCDF file Si.ion.nc
Dumping basis to NetCDF file H.ion.nc
coor:   Atomic-coordinates input format  =     Cartesian coordinates
coor:                                          (in Angstroms)

siesta: Atomic coordinates (Bohr) and species
siesta:     87.08515  63.71710  12.32491  1        1
siesta:     82.02267  67.29680   8.74519  1        2
siesta:     79.49142  70.87652   8.74521  1        3
siesta:     87.08515  70.87652  12.32491  1        4
siesta:     84.55390  67.29680  12.32493  1        5
siesta:     82.02267  74.45622   8.74519  1        6
siesta:     79.49142  78.03594   8.74521  1        7
siesta:     87.08515  78.03594  12.32491  1        8
siesta:     84.55390  74.45622  12.32493  1        9
siesta:     82.02267  81.61564   8.74519  1       10
siesta:     87.08515  85.19536  12.32491  1       11
siesta:     84.55390  81.61564  12.32493  1       12
siesta:     92.14707  60.13738   8.74518  1       13
siesta:     89.61582  63.71710   8.74520  1       14
siesta:     97.20956  63.71710  12.32480  1       15
siesta:     94.67830  60.13738  12.32491  1       16
siesta:     92.14707  67.29680   8.74518  1       17
siesta:     89.61582  70.87652   8.74520  1       18
siesta:     97.20956  70.87652  12.32480  1       19
siesta:     94.67830  67.29680  12.32491  1       20
siesta:     92.14707  74.45622   8.74518  1       21
siesta:     89.61582  78.03594   8.74520  1       22
siesta:     97.20956  78.03594  12.32480  1       23
siesta:     94.67830  74.45622  12.32491  1       24
siesta:     92.14707  81.61564   8.74518  1       25
siesta:     89.61582  85.19536   8.74520  1       26
siesta:     97.20956  85.19536  12.32480  1       27
siesta:     94.67830  81.61564  12.32491  1       28
siesta:     92.14707  88.77506   8.74518  1       29
siesta:     94.67830  88.77506  12.32491  1       30
siesta:     99.74022  63.71710   8.74520  1       31
siesta:    102.27147  67.29680   8.74518  1       32
siesta:     99.74022  70.87652   8.74520  1       33
siesta:    107.33396  70.87652  12.32480  1       34
siesta:    104.80270  67.29680  12.32491  1       35
siesta:    102.27147  74.45622   8.74518  1       36
siesta:     99.74022  78.03594   8.74520  1       37
siesta:    107.33396  78.03594  12.32480  1       38
siesta:    104.80270  74.45622  12.32491  1       39
siesta:    102.27147  81.61564   8.74518  1       40
siesta:     99.74022  85.19536   8.74520  1       41
siesta:    104.80270  81.61564  12.32491  1       42
siesta:     85.47781  61.44398  12.32492  2       43
siesta:     80.41533  65.02369   8.74520  2       44
siesta:     77.88445  70.87652   6.47209  2       45
siesta:     77.88445  70.87652  11.01832  2       46
siesta:     77.88445  78.03594   6.47209  2       47
siesta:     77.88445  78.03594  11.01832  2       48
siesta:     80.41533  83.88876   8.74520  2       49
siesta:     85.47781  87.46847  12.32492  2       50
siesta:     90.53973  57.86427   8.74520  2       51
siesta:     96.28565  57.86427  12.32492  2       52
siesta:     90.53973  91.04818   8.74520  2       53
siesta:     96.28565  91.04818  12.32492  2       54
siesta:    101.34757  61.44398   8.74520  2       55
siesta:    108.94093  70.87652  10.05180  2       56
siesta:    108.94093  70.87652  14.59803  2       57
siesta:    106.41005  65.02369  12.32492  2       58
siesta:    108.94093  78.03594  10.05180  2       59
siesta:    108.94093  78.03594  14.59803  2       60
siesta:    101.34757  87.46847   8.74520  2       61
siesta:    106.41005  83.88876  12.32492  2       62

siesta: System type = chain     

initatomlists: Number of atoms, orbitals, and projectors:     62   188   458

siesta: ******************** Simulation parameters ****************************
siesta:
siesta: The following are some of the parameters of the simulation.
siesta: A complete list of the parameters used, including default values,
siesta: can be found in file out.fdf
siesta:
redata: Spin configuration                          = none
redata: Number of spin components                   = 1
redata: Time-Reversal Symmetry                      = T
redata: Spin spiral                                 = F
redata: Long output                                 =   F
redata: Number of Atomic Species                    =        2
redata: Charge density info will appear in .RHO file
redata: Write Mulliken Pop.                         = NO
redata: Matel table size (NRTAB)                    =     1024
redata: Mesh Cutoff                                 =   100.0000 Ry
redata: Net charge of the system                    =     0.0000 |e|
redata: Min. number of SCF Iter                     =        0
redata: Max. number of SCF Iter                     =     1000
redata: SCF convergence failure will abort job
redata: SCF mix quantity                            = Hamiltonian
redata: Mix DM or H after convergence               =   F
redata: Recompute H after scf cycle                 =   F
redata: Mix DM in first SCF step                    =   T
redata: Write Pulay info on disk                    =   F
redata: New DM Occupancy tolerance                  = 0.000000000001
redata: No kicks to SCF
redata: DM Mixing Weight for Kicks                  =     0.5000
redata: Require Harris convergence for SCF          =   F
redata: Harris energy tolerance for SCF             =     0.000100 eV
redata: Require DM convergence for SCF              =   T
redata: DM tolerance for SCF                        =     0.000100
redata: Require EDM convergence for SCF             =   F
redata: EDM tolerance for SCF                       =     0.001000 eV
redata: Require H convergence for SCF               =   T
redata: Hamiltonian tolerance for SCF               =     0.001000 eV
redata: Require (free) Energy convergence for SCF   =   F
redata: (free) Energy tolerance for SCF             =     0.000100 eV
redata: Using Saved Data (generic)                  =   F
redata: Use continuation files for DM               =   F
redata: Neglect nonoverlap interactions             =   F
redata: Method of Calculation                       = Diagonalization
redata: Electronic Temperature                      =   299.9869 K
redata: Fix the spin of the system                  =   F
redata: Dynamics option                             = Single-point calculation
mix.SCF: Pulay mixing                            = Pulay
mix.SCF:    Variant                              = stable
mix.SCF:    History steps                        = 3
mix.SCF:    Linear mixing weight                 =     0.050000
mix.SCF:    Mixing weight                        =     0.050000
mix.SCF:    SVD condition                        = 0.1000E-07
redata: Save all siesta data in one NC              =   F
redata: ***********************************************************************

%block SCF.Mixers
  Pulay
%endblock SCF.Mixers

%block SCF.Mixer.Pulay
  # Mixing method
  method pulay
  variant stable

  # Mixing options
  weight 0.0500
  weight.linear 0.0500
  history 3
%endblock SCF.Mixer.Pulay

DM_history_depth set to one: no extrapolation allowed by default for geometry relaxation
Size of DM history Fstack: 1
Total number of electrons:   188.000000
Total ionic charge:   188.000000

* ProcessorY, Blocksize:    2  24


* Orbital distribution balance (max,min):    24    20

k-point displ. along   1 input, could be:     0.50    0.00
k-point displ. along   2 input, could be:     0.50    0.00
 Kpoints in:            9 . Kpoints trimmed:            9

siesta: k-grid: Number of k-points =     9
siesta: k-grid: Cutoff (effective) =    14.996 Ang
siesta: k-grid: Supercell and displacements
siesta: k-grid:    1   0   0      0.500
siesta: k-grid:    0   1   0      0.500
siesta: k-grid:    0   0  18      0.500

diag: Algorithm                                     = D&C
diag: Parallel over k                               =   T
diag: Use parallel 2D distribution                  =   T
diag: Parallel block-size                           = 24
diag: Parallel distribution                         =     2 x     4
diag: Used triangular part                          = Lower
diag: Absolute tolerance                            =  0.100E-15
diag: Orthogonalization factor                      =  0.100E-05
diag: Memory factor                                 =  1.0000
Using current reciprocal lattice vectors for BandLinesScale
Beware any cell changes by the end of the run
Using current reciprocal lattice vectors for BandLinesScale
Beware any cell changes by the end of the run

superc: Internal auxiliary supercell:     1 x     1 x     5  =       5
superc: Number of atoms, orbitals, and projectors:    310    940   2290


ts: **************************************************************
ts: Save H and S matrices                           =    F
ts: Save DM and EDM matrices                        =    F
ts: Only save the overlap matrix S                  =    F
ts: **************************************************************

************************ Begin: TS CHECKS AND WARNINGS ************************
************************ End: TS CHECKS AND WARNINGS **************************


                     ====================================
                        Single-point calculation
                     ====================================

superc: Internal auxiliary supercell:     1 x     1 x     5  =       5
superc: Number of atoms, orbitals, and projectors:    310    940   2290

outcell: Unit cell vectors (Ang):
       29.992776    0.000000    0.000000
        0.000000   29.992776    0.000000
        0.000000    0.000000    3.915506

outcell: Cell vector modules (Ang)   :   29.992776   29.992776    3.915506
outcell: Cell angles (23,13,12) (deg):     90.0000     90.0000     90.0000
outcell: Cell volume (Ang**3)        :   3522.2585
<dSpData1D:S at geom step 0
  <sparsity:sparsity for geom step 0
    nrows_g=188 nrows=24 sparsity=.1481 nnzs=5236, refcount: 7>
  <dData1D:(new from dSpData1D) n=5236, refcount: 1>
refcount: 1>
new_DM -- step:     1
Initializing Density Matrix...
DM filled with atomic data:
<dSpData2D:DM initialized from atoms
  <sparsity:sparsity for geom step 0
    nrows_g=188 nrows=24 sparsity=.1481 nnzs=5236, refcount: 8>
  <dData2D:DM n=5236 m=1, refcount: 1>
refcount: 1>
No. of atoms with KB's overlaping orbs in proc 0. Max # of overlaps:      43      68
New grid distribution:   1
           1       1:   96    1:   48    1:    3
           2       1:   96    1:   48    4:    6
           3       1:   96    1:   48    7:    9
           4       1:   96    1:   48   10:   12
           5       1:   96   49:   96    1:    3
           6       1:   96   49:   96    4:    6
           7       1:   96   49:   96    7:    9
           8       1:   96   49:   96   10:   12

InitMesh: MESH =   192 x   192 x    24 =      884736
InitMesh: (bp) =    96 x    96 x    12 =      110592
InitMesh: Mesh cutoff (required, used) =   100.000   103.836 Ry
ExtMesh (bp) on 0 =   140 x    92 x    43 =      553840
New grid distribution:   2
           1      63:   96   42:   96    1:   12
           2       1:   62    1:   21    1:   12
           3       1:   62   22:   31    1:   12
           4      63:   96   32:   41    1:   12
           5       1:   62   42:   96    1:   12
           6      63:   96    1:   21    1:   12
           7       1:   62   32:   41    1:   12
           8      63:   96   22:   31    1:   12
New grid distribution:   3
           1      63:   96   47:   96    1:   12
           2       1:   62    1:   18    1:   12
           3       1:   62   19:   32    1:   12
           4      63:   96   33:   46    1:   12
           5       1:   62   47:   96    1:   12
           6       1:   62   33:   46    1:   12
           7      63:   96    1:   18    1:   12
           8      63:   96   19:   32    1:   12
Setting up quadratic distribution...
ExtMesh (bp) on 0 =    78 x    99 x    52 =      401544
PhiOnMesh: Number of (b)points on node 0 =                22440
PhiOnMesh: nlist on node 0 =               110903

stepf: Fermi-Dirac step function

siesta: Program's energy decomposition (eV):
siesta: Ebs     =     -1570.772853
siesta: Eions   =      8390.991026
siesta: Ena     =      2550.734564
siesta: Ekin    =      1957.196277
siesta: Enl     =       501.524334
siesta: Eso     =         0.000000
siesta: Edftu   =         0.000000
siesta: DEna    =       109.581074
siesta: DUscf   =         5.816950
siesta: DUext   =         0.000000
siesta: Exc     =     -1531.356594
siesta: eta*DQ  =         0.000000
siesta: Emadel  =         0.000000
siesta: Emeta   =         0.000000
siesta: Emolmec =         0.000000
siesta: Ekinion =         0.000000
siesta: Eharris =     -4827.293346
siesta: Etot    =     -4797.494421
siesta: FreeEng =     -4797.494421

        iscf     Eharris(eV)        E_KS(eV)     FreeEng(eV)     dDmax    Ef(eV) dHmax(eV)
   scf:    1    -4827.293346    -4797.494421    -4797.494421  0.883298 -3.740650  2.248369
timer: Routine,Calls,Time,% = IterSCF        1       0.572  51.71
   scf:    2    -4798.104923    -4797.810574    -4797.810574  0.008447 -3.706318  1.665413
   scf:    3    -4798.873377    -4798.484495    -4798.484495  0.033850 -3.596541  0.463272
   scf:    4    -4798.720399    -4798.623638    -4798.623638  0.021414 -3.632456  0.244986
   scf:    5    -4798.630336    -4798.627150    -4798.627150  0.001489 -3.643541  0.238573
   scf:    6    -4798.637596    -4798.632473    -4798.632473  0.001536 -3.654007  0.215238
   scf:    7    -4798.657428    -4798.648257    -4798.648257  0.009577 -3.709710  0.071078
   scf:    8    -4798.648567    -4798.648418    -4798.648418  0.000360 -3.713536  0.062775
   scf:    9    -4798.649005    -4798.648960    -4798.648960  0.002248 -3.739944  0.030935
   scf:   10    -4798.649144    -4798.649061    -4798.649061  0.000509 -3.740201  0.027888
   scf:   11    -4798.648576    -4798.648913    -4798.648913  0.001731 -3.737285  0.026143
   scf:   12    -4798.648811    -4798.648867    -4798.648867  0.000306 -3.735512  0.030076
   scf:   13    -4798.648908    -4798.648890    -4798.648890  0.000285 -3.735081  0.030264
   scf:   14    -4798.649223    -4798.649070    -4798.649070  0.000618 -3.737831  0.021676
   scf:   15    -4798.649160    -4798.649117    -4798.649117  0.000257 -3.739586  0.017676
   scf:   16    -4798.649130    -4798.649144    -4798.649144  0.000647 -3.747906  0.013255
   scf:   17    -4798.649138    -4798.649141    -4798.649141  0.000102 -3.749182  0.012107
   scf:   18    -4798.649107    -4798.649134    -4798.649134  0.000552 -3.749071  0.009439
   scf:   19    -4798.649140    -4798.649137    -4798.649137  0.000078 -3.749026  0.007492
   scf:   20    -4798.649167    -4798.649155    -4798.649155  0.000320 -3.749007  0.005883
   scf:   21    -4798.649162    -4798.649158    -4798.649158  0.000050 -3.749162  0.005310
   scf:   22    -4798.649171    -4798.649165    -4798.649165  0.000150 -3.749784  0.003279
   scf:   23    -4798.649166    -4798.649166    -4798.649166  0.000031 -3.750012  0.002772
   scf:   24    -4798.649165    -4798.649166    -4798.649166  0.000051 -3.750393  0.002301
   scf:   25    -4798.649163    -4798.649164    -4798.649164  0.000051 -3.750631  0.002256
   scf:   26    -4798.649164    -4798.649164    -4798.649164  0.000020 -3.750720  0.002307
   scf:   27    -4798.649167    -4798.649166    -4798.649166  0.000087 -3.750839  0.002181
   scf:   28    -4798.649167    -4798.649166    -4798.649166  0.000014 -3.750904  0.001986
   scf:   29    -4798.649168    -4798.649167    -4798.649167  0.000072 -3.751284  0.000796

SCF Convergence by DM+H criterion
max |DM_out - DM_in|         :     0.0000719950
max |H_out - H_in|      (eV) :     0.0007958215
SCF cycle converged after 29 iterations

Using DM_out to compute the final energy and forces
No. of atoms with KB's overlaping orbs in proc 0. Max # of overlaps:      43      68

siesta: E_KS(eV) =            -4798.6492

siesta: E_KS - E_eggbox =     -4798.6492

siesta: Atomic forces (eV/Ang):
----------------------------------------
   Tot    0.020026   -0.082315   -0.191684
----------------------------------------
   Max    1.021222
   Res    0.549904    sqrt( Sum f_i^2 / 3N )
----------------------------------------
   Max    1.021222    constrained

Stress tensor Voigt[x,y,z,yz,xz,xy] (kbar):      -23.66      -29.50      -15.56        0.00       -1.81        0.02
(Free)E + p*V (eV/cell)    -4748.2976
Target enthalpy (eV/cell)    -4798.6492

siesta: Stress tensor (static) (eV/Ang**3):
        -0.014767    0.000014   -0.001133
         0.000014   -0.018411    0.000001
        -0.001133    0.000001   -0.009709

siesta: Pressure (static):         22.90374474  kBar

siesta: Stress tensor (total) (eV/Ang**3):
        -0.014767    0.000014   -0.001133
         0.000014   -0.018411    0.000001
        -0.001133    0.000001   -0.009709

siesta: Pressure (total):         22.90374474  kBar

outcell: Unit cell vectors (Ang):
       29.992776    0.000000    0.000000
        0.000000   29.992776    0.000000
        0.000000    0.000000    3.915506

outcell: Cell vector modules (Ang)   :   29.992776   29.992776    3.915506
outcell: Cell angles (23,13,12) (deg):     90.0000     90.0000     90.0000
outcell: Cell volume (Ang**3)        :   3522.2585
Computing bands...
*** Note: ParallelOverK option not used for Bands

siesta: Band energies (eV):
  ik is       eps
   1  1  -16.0408  -15.7478  -15.7371  -15.3923  -15.3376  -15.2428  -14.9789  -14.8624  -14.6687  -14.6487
         -14.4426  -14.4076  -14.0711  -14.0136  -13.9688  -13.8786  -13.8531  -13.6383  -13.2852  -13.2820
  -13.1877  -12.7389  -12.2402  -11.6789  -11.6761  -11.2316  -11.2060  -11.1312  -11.1165  -10.9462
  -10.6071  -10.5193  -10.5011  -10.4975   -9.9442   -9.7663   -9.3756   -9.3754   -8.8455   -8.7844
   -8.7033   -8.5722   -8.5391   -8.4867   -8.3300   -7.9408   -7.8393   -7.6385   -7.4643   -7.4633
   -7.3586   -7.3336   -7.2210   -7.1777   -7.1284   -7.0298   -6.9188   -6.8575   -6.8421   -6.7947
   -6.7794   -6.6473   -6.5235   -6.4655   -6.4538   -6.3337   -6.3178   -6.2570   -6.1921   -5.9881
   -5.9693   -5.9120   -5.8871   -5.8383   -5.7726   -5.7260   -5.6689   -5.5749   -5.5640   -5.4676
   -5.4432   -5.4071   -5.3409   -5.2518   -5.2224   -5.1510   -5.0846   -4.9789   -4.8964   -4.8594
   -4.8073   -4.6154   -4.5199   -4.3217   -1.7615   -1.7293   -1.5647   -1.4552   -1.3918   -1.2897
   -1.2828   -1.2812   -1.2047   -1.1673   -1.1656   -1.1642   -1.1437   -1.1214   -1.0997   -1.0926
   -0.9253   -0.8871   -0.8295   -0.5606   -0.3589   -0.2685   -0.1370    0.0572    0.1231    0.1859
    0.2904    0.3912    0.4206    0.4408    0.5751    0.6211    0.7384    0.7425    0.8085    0.8157
    0.8802    0.9029    1.1193    1.1756    1.2399    1.3402    1.3722    1.3840    1.4810    1.4886
    1.5974    1.6330    1.9148    2.0221    2.0664    2.0870    2.1940    2.4988    2.5157    2.6014
    2.6359    2.9347    3.2041    3.5366    3.7305    3.7331    3.7400    3.7973    3.9841    4.1325
    4.1615    4.4017    4.5455    4.6861    4.8356    4.8648    5.3777    5.3827    5.4067    5.4275
    5.9520    6.1125    6.8447    6.8877    8.4208    8.5111    8.5378    8.6111    9.2497    9.3041
    9.4277    9.5226    9.8128    9.8191    9.8502    9.8717   10.9733   10.9826
   2  1  -16.0395  -15.7465  -15.7358  -15.3910  -15.3364  -15.2416  -14.9777  -14.8613  -14.6675  -14.6475
         -14.4415  -14.4064  -14.0700  -14.0124  -13.9677  -13.8775  -13.8519  -13.6371  -13.2841  -13.2808
  -13.1869  -12.7377  -12.2389  -11.6793  -11.6765  -11.2318  -11.2062  -11.1307  -11.1162  -10.9460
  -10.6071  -10.5190  -10.5008  -10.4978   -9.9449   -9.7664   -9.3755   -9.3753   -8.8449   -8.7855
   -8.7036   -8.5718   -8.5390   -8.4861   -8.3303   -7.9413   -7.8403   -7.6397   -7.4670   -7.4647
   -7.3619   -7.3329   -7.2264   -7.1838   -7.1279   -7.0327   -6.9197   -6.8704   -6.8478   -6.7872
   -6.7829   -6.6494   -6.5342   -6.4719   -6.4590   -6.3608   -6.2871   -6.2592   -6.1963   -6.0011
   -5.9827   -5.9057   -5.8874   -5.8385   -5.7755   -5.7418   -5.6713   -5.5870   -5.5649   -5.4745
   -5.4499   -5.4116   -5.3328   -5.2583   -5.2139   -5.1594   -5.1010   -4.9967   -4.8895   -4.8598
   -4.8173   -4.6072   -4.5303   -4.3328   -1.7521   -1.7200   -1.5554   -1.4450   -1.3822   -1.2772
   -1.2715   -1.2700   -1.1933   -1.1615   -1.1529   -1.1500   -1.1339   -1.1098   -1.0894   -1.0805
   -0.9155   -0.8767   -0.8182   -0.5584   -0.3716   -0.2540   -0.1428    0.0571    0.1288    0.1858
    0.2865    0.3897    0.3989    0.4648    0.5705    0.6231    0.7381    0.7436    0.8068    0.8122
    0.8834    0.9069    1.1181    1.1763    1.2404    1.3430    1.3632    1.3949    1.4815    1.4923
    1.5906    1.6455    1.9140    2.0180    2.0758    2.0841    2.1863    2.5025    2.5173    2.6016
    2.6472    2.9349    3.2037    3.5379    3.6954    3.7319    3.7734    3.7958    3.9823    4.1313
    4.1645    4.3997    4.5503    4.6889    4.8389    4.8711    5.3752    5.3797    5.4049    5.4225
    5.9494    6.1080    6.8457    6.8883    8.4178    8.5090    8.5347    8.6094    9.2468    9.3009
    9.4250    9.5198    9.8086    9.8190    9.8459    9.8705   10.9700   10.9791
   3  1  -16.0357  -15.7428  -15.7320  -15.3874  -15.3327  -15.2379  -14.9740  -14.8579  -14.6638  -14.6441
         -14.4382  -14.4028  -14.0666  -14.0087  -13.9644  -13.8742  -13.8484  -13.6335  -13.2808  -13.2772
  -13.1843  -12.7340  -12.2349  -11.6803  -11.6777  -11.2324  -11.2068  -11.1294  -11.1154  -10.9455
  -10.6072  -10.5184  -10.5001  -10.4987   -9.9471   -9.7668   -9.3760   -9.3743   -8.8431   -8.7889
   -8.7043   -8.5705   -8.5387   -8.4843   -8.3314   -7.9430   -7.8432   -7.6432   -7.4745   -7.4702
   -7.3717   -7.3310   -7.2421   -7.2015   -7.1271   -7.0410   -6.9225   -6.8995   -6.8645   -6.7929
   -6.7747   -6.6557   -6.5661   -6.4874   -6.4753   -6.3903   -6.2680   -6.2505   -6.2043   -6.0350
   -6.0150   -5.8955   -5.8945   -5.8423   -5.7849   -5.7773   -5.6881   -5.6135   -5.5640   -5.4961
   -5.4713   -5.4235   -5.3149   -5.2777   -5.1925   -5.1833   -5.1435   -5.0437   -4.8746   -4.8611
   -4.8465   -4.5876   -4.5606   -4.3649   -1.7244   -1.6922   -1.5281   -1.4151   -1.3537   -1.2421
   -1.2370   -1.2364   -1.1597   -1.1360   -1.1199   -1.1134   -1.1039   -1.0753   -1.0587   -1.0445
   -0.8865   -0.8459   -0.7848   -0.5517   -0.3968   -0.2232   -0.1582    0.0577    0.1436    0.1858
    0.2739    0.3750    0.3853    0.4967    0.5595    0.6272    0.7356    0.7482    0.8019    0.8038
    0.8921    0.9172    1.1153    1.1778    1.2419    1.3522    1.3527    1.4105    1.4807    1.5040
    1.5849    1.6699    1.9119    2.0115    2.0735    2.0979    2.1683    2.5129    2.5224    2.6020
    2.6779    2.9356    3.2028    3.5417    3.6561    3.7280    3.7914    3.8074    3.9769    4.1279
    4.1726    4.3944    4.5646    4.6976    4.8492    4.8899    5.3676    5.3707    5.3997    5.4078
    5.9415    6.0946    6.8487    6.8901    8.4091    8.5029    8.5253    8.6043    9.2381    9.2914
    9.4167    9.5113    9.7970    9.8175    9.8332    9.8670   10.9602   10.9689
   4  1  -16.0293  -15.7366  -15.7256  -15.3814  -15.3265  -15.2318  -14.9680  -14.8521  -14.6576  -14.6383
         -14.4326  -14.3968  -14.0609  -14.0026  -13.9589  -13.8688  -13.8425  -13.6275  -13.2754  -13.2714
  -13.1801  -12.7280  -12.2282  -11.6821  -11.6797  -11.2335  -11.2079  -11.1272  -11.1140  -10.9448
  -10.6074  -10.5174  -10.5005  -10.4986   -9.9507   -9.7674   -9.3768   -9.3727   -8.8402   -8.7949
   -8.7055   -8.5685   -8.5384   -8.4815   -8.3331   -7.9460   -7.8485   -7.6492   -7.4869   -7.4803
   -7.3883   -7.3279   -7.2665   -7.2298   -7.1274   -7.0547   -6.9366   -6.9284   -6.8908   -6.8085
   -6.7672   -6.6655   -6.6134   -6.5092   -6.5042   -6.4183   -6.2858   -6.2186   -6.2086   -6.0827
   -6.0588   -5.9193   -5.8912   -5.8592   -5.8195   -5.7978   -5.7199   -5.6380   -5.5605   -5.5316
   -5.5081   -5.4427   -5.3069   -5.3023   -5.2164   -5.2020   -5.1721   -5.1032   -4.8934   -4.8637
   -4.8597   -4.6087   -4.5658   -4.4155   -1.6792   -1.6470   -1.4842   -1.3671   -1.3072   -1.1890
   -1.1839   -1.1763   -1.1053   -1.0921   -1.0675   -1.0616   -1.0511   -1.0193   -1.0084   -0.9850
   -0.8393   -0.7960   -0.7303   -0.5399   -0.4218   -0.1879   -0.1791    0.0596    0.1632    0.1857
    0.2521    0.3583    0.3784    0.5277    0.5465    0.6313    0.7307    0.7557    0.7946    0.7953
    0.9051    0.9314    1.1123    1.1790    1.2446    1.3447    1.3696    1.4253    1.4752    1.5244
    1.5904    1.6983    1.9096    2.0077    2.0502    2.1269    2.1510    2.5253    2.5358    2.6029
    2.7220    2.9374    3.2018    3.5470    3.6182    3.7207    3.7841    3.8359    3.9675    4.1225
    4.1843    4.3866    4.5880    4.7126    4.8665    4.9206    5.3553    5.3558    5.3837    5.3929
    5.9285    6.0725    6.8538    6.8931    8.3947    8.4929    8.5099    8.5959    9.2239    9.2758
    9.4032    9.4972    9.7782    9.8122    9.8145    9.8617   10.9440   10.9519
   5  1  -16.0203  -15.7279  -15.7166  -15.3729  -15.3178  -15.2232  -14.9596  -14.8441  -14.6490  -14.6301
         -14.4247  -14.3884  -14.0530  -13.9941  -13.9512  -13.8612  -13.8342  -13.6191  -13.2678  -13.2631
  -13.1743  -12.7195  -12.2189  -11.6846  -11.6826  -11.2352  -11.2095  -11.1243  -11.1120  -10.9437
  -10.6078  -10.5160  -10.5028  -10.4969   -9.9560   -9.7684   -9.3780   -9.3705   -8.8361   -8.8039
   -8.7074   -8.5657   -8.5379   -8.4775   -8.3354   -7.9503   -7.8568   -7.6581   -7.5052   -7.4957
   -7.4117   -7.3238   -7.2978   -7.2675   -7.1298   -7.0737   -6.9793   -6.9417   -6.9217   -6.8284
   -6.7714   -6.6784   -6.6658   -6.5460   -6.5384   -6.4461   -6.3105   -6.2082   -6.1982   -6.1363
   -6.1097   -5.9645   -5.9191   -5.8786   -5.8666   -5.8067   -5.7558   -5.6529   -5.5776   -5.5601
   -5.5560   -5.4741   -5.3418   -5.3226   -5.2727   -5.2332   -5.2031   -5.1217   -4.9553   -4.8669
   -4.8499   -4.6715   -4.5488   -4.4799   -1.6183   -1.5857   -1.4256   -1.3042   -1.2438   -1.1193
   -1.1135   -1.0953   -1.0326   -1.0319   -0.9997   -0.9966   -0.9762   -0.9450   -0.9397   -0.9028
   -0.7758   -0.7289   -0.6565   -0.5221   -0.4407   -0.2002   -0.1519    0.0624    0.1844    0.1859
    0.2242    0.3483    0.3702    0.5347    0.5562    0.6351    0.7244    0.7627    0.7870    0.7913
    0.9210    0.9479    1.1114    1.1803    1.2487    1.3393    1.3939    1.4390    1.4670    1.5530
    1.6074    1.7290    1.9080    2.0076    2.0131    2.1411    2.1613    2.5360    2.5603    2.6045
    2.7738    2.9414    3.2015    3.5522    3.5829    3.7089    3.7740    3.8570    3.9536    4.1151
    4.1979    4.3772    4.6202    4.7342    4.8900    4.9623    5.3349    5.3394    5.3508    5.3867
    5.9104    6.0419    6.8609    6.8975    8.3748    8.4793    8.4887    8.5843    9.2041    9.2542
    9.3845    9.4778    9.7520    9.7831    9.8100    9.8547   10.9216   10.9286
   6  1  -16.0088  -15.7168  -15.7052  -15.3620  -15.3067  -15.2122  -14.9488  -14.8338  -14.6380  -14.6197
         -14.4147  -14.3777  -14.0428  -13.9831  -13.9413  -13.8516  -13.8236  -13.6083  -13.2580  -13.2526
  -13.1669  -12.7086  -12.2069  -11.6880  -11.6864  -11.2375  -11.2118  -11.1205  -11.1096  -10.9426
  -10.6084  -10.5143  -10.5059  -10.4948   -9.9631   -9.7699   -9.3799   -9.3680   -8.8310   -8.8164
   -8.7099   -8.5625   -8.5376   -8.4725   -8.3383   -7.9563   -7.8693   -7.6704   -7.5307   -7.5169
   -7.4419   -7.3345   -7.3188   -7.3132   -7.1351   -7.0982   -7.0268   -6.9746   -6.9432   -6.8512
   -6.7967   -6.7110   -6.6948   -6.5974   -6.5768   -6.4729   -6.3412   -6.2234   -6.2071   -6.1612
   -6.1610   -6.0238   -5.9847   -5.9220   -5.8916   -5.8142   -5.7917   -5.6620   -5.6289   -5.6146
   -5.5625   -5.5202   -5.3863   -5.3817   -5.3462   -5.2652   -5.2340   -5.1127   -5.0270   -4.8713
   -4.8457   -4.7443   -4.5573   -4.5349   -1.5435   -1.5104   -1.3551   -1.2316   -1.1653   -1.0360
   -1.0296   -0.9973   -0.9576   -0.9445   -0.9220   -0.9169   -0.8839   -0.8575   -0.8544   -0.8003
   -0.6985   -0.6473   -0.5657   -0.4965   -0.4483   -0.2157   -0.1169    0.0645    0.1868    0.1950
    0.2057    0.3426    0.3630    0.5257    0.5799    0.6390    0.7190    0.7644    0.7788    0.7992
    0.9389    0.9662    1.1155    1.1837    1.2543    1.3361    1.4141    1.4531    1.4686    1.5883
    1.6325    1.7614    1.9079    1.9683    2.0113    2.1367    2.2012    2.5487    2.5922    2.6072
    2.8289    2.9490    3.2024    3.5512    3.5560    3.6919    3.7611    3.8699    3.9348    4.1051
    4.2114    4.3669    4.6611    4.7624    4.9173    5.0117    5.3079    5.3108    5.3233    5.3849
    5.8878    6.0032    6.8700    6.9034    8.3499    8.4621    8.4624    8.5698    9.1790    9.2271
    9.3612    9.4532    9.7186    9.7464    9.8043    9.8463   10.8934   10.8993
   7  1  -15.9947  -15.7032  -15.6911  -15.3487  -15.2931  -15.1988  -14.9356  -14.8213  -14.6245  -14.6070
         -14.4025  -14.3646  -14.0305  -13.9698  -13.9292  -13.8398  -13.8107  -13.5951  -13.2462  -13.2397
  -13.1580  -12.6953  -12.1924  -11.6924  -11.6913  -11.2405  -11.2149  -11.1162  -11.1067  -10.9413
  -10.6094  -10.5124  -10.5100  -10.4925   -9.9722   -9.7721   -9.3825   -9.3652   -8.8330   -8.8250
   -8.7133   -8.5588   -8.5375   -8.4665   -8.3416   -7.9642   -7.8874   -7.6865   -7.5646   -7.5443
   -7.4788   -7.3745   -7.3655   -7.3138   -7.1443   -7.1301   -7.0787   -7.0153   -6.9635   -6.8766
   -6.8451   -6.7457   -6.7167   -6.6510   -6.6247   -6.4968   -6.3814   -6.2900   -6.2259   -6.1887
   -6.1619   -6.0911   -6.0632   -5.9824   -5.9165   -5.8334   -5.8254   -5.6831   -5.6738   -5.6683
   -5.5899   -5.5616   -5.4585   -5.4515   -5.4183   -5.3071   -5.2391   -5.1376   -5.0846   -4.8772
   -4.8479   -4.8212   -4.6291   -4.5367   -1.4576   -1.4234   -1.2755   -1.1564   -1.0736   -0.9440
   -0.9370   -0.8871   -0.8711   -0.8474   -0.8389   -0.8236   -0.7767   -0.7622   -0.7553   -0.6811
   -0.6107   -0.5549   -0.4626   -0.4582   -0.4377   -0.2188   -0.0825    0.0628    0.1726    0.1894
    0.2247    0.3399    0.3598    0.5205    0.5957    0.6439    0.7198    0.7636    0.7719    0.8162
    0.9580    0.9869    1.1270    1.1921    1.2610    1.3361    1.4129    1.4693    1.4974    1.6285
    1.6632    1.7954    1.9094    1.9216    2.0186    2.1348    2.2472    2.5640    2.6112    2.6298
    2.8827    2.9634    3.2054    3.5239    3.5567    3.6691    3.7457    3.8746    3.9106    4.0917
    4.2234    4.3560    4.7101    4.7960    4.9440    5.0599    5.2646    5.2766    5.3161    5.3920
    5.8614    5.9569    6.8810    6.9109    8.3202    8.4308    8.4425    8.5525    9.1490    9.1949
    9.3334    9.4236    9.6785    9.7023    9.7978    9.8369   10.8599   10.8646
   8  1  -15.9781  -15.6872  -15.6746  -15.3331  -15.2770  -15.1830  -14.9200  -14.8065  -14.6085  -14.5920
         -14.3881  -14.3491  -14.0161  -13.9540  -13.9149  -13.8259  -13.7955  -13.5796  -13.2324  -13.2245
  -13.1478  -12.6797  -12.1752  -11.6979  -11.6972  -11.2444  -11.2190  -11.1113  -11.1034  -10.9402
  -10.6109  -10.5151  -10.5105  -10.4900   -9.9835   -9.7751   -9.3862   -9.3623   -8.8544   -8.8182
   -8.7176   -8.5551   -8.5378   -8.4598   -8.3452   -7.9745   -7.9127   -7.7071   -7.6076   -7.5783
   -7.5218   -7.4235   -7.4149   -7.3098   -7.1733   -7.1617   -7.1312   -7.0511   -6.9891   -6.9069
   -6.9035   -6.7831   -6.7486   -6.6959   -6.6798   -6.5177   -6.4349   -6.3630   -6.2668   -6.1880
   -6.1767   -6.1624   -6.1443   -6.0405   -5.9580   -5.8886   -5.8445   -5.7332   -5.7260   -5.6874
   -5.6505   -5.5822   -5.5435   -5.5294   -5.4804   -5.3295   -5.2598   -5.2175   -5.1139   -4.8962
   -4.8831   -4.8559   -4.6946   -4.5459   -1.3636   -1.3272   -1.1906   -1.0883   -0.9712   -0.8527
   -0.8404   -0.7783   -0.7760   -0.7563   -0.7351   -0.7193   -0.6635   -0.6568   -0.6461   -0.5492
   -0.5169   -0.4562   -0.4086   -0.4021   -0.3457   -0.2013   -0.0459    0.0539    0.1620    0.1948
    0.2432    0.3405    0.3631    0.5192    0.6021    0.6509    0.7316    0.7643    0.7684    0.8382
    0.9779    1.0115    1.1479    1.2086    1.2666    1.3421    1.4013    1.4895    1.5413    1.6724
    1.6982    1.8310    1.8773    1.9123    2.0295    2.1339    2.3002    2.5822    2.6171    2.6724
    2.9276    2.9912    3.2108    3.5016    3.5533    3.6408    3.7279    3.8721    3.8811    4.0745
    4.2328    4.3445    4.7657    4.8310    4.9641    5.0875    5.2182    5.2406    5.3365    5.4126
    5.8330    5.9034    6.8939    6.9201    8.2861    8.3952    8.4202    8.5328    9.1143    9.1578
    9.3016    9.3895    9.6322    9.6515    9.7909    9.8270   10.8216   10.8251
   9  1  -15.9589  -15.6687  -15.6555  -15.3151  -15.2586  -15.1647  -14.9021  -14.7895  -14.5902  -14.5747
         -14.3715  -14.3314  -13.9997  -13.9359  -13.8985  -13.8101  -13.7780  -13.5617  -13.2166  -13.2071
  -13.1363  -12.6617  -12.1554  -11.7049  -11.7041  -11.2493  -11.2241  -11.1059  -11.0998  -10.9392
  -10.6131  -10.5213  -10.5087  -10.4876   -9.9973   -9.7793   -9.3912   -9.3597   -8.8815   -8.8109
   -8.7230   -8.5516   -8.5387   -8.4526   -8.3491   -7.9878   -7.9470   -7.7328   -7.6597   -7.6191
   -7.5704   -7.4841   -7.4546   -7.3090   -7.2291   -7.2088   -7.1638   -7.0772   -7.0194   -6.9633
   -6.9462   -6.8335   -6.7864   -6.7360   -6.7308   -6.5386   -6.4994   -6.4344   -6.3098   -6.2516
   -6.2237   -6.1965   -6.1807   -6.0935   -6.0153   -5.9576   -5.8763   -5.8003   -5.7645   -5.7161
   -5.7058   -5.6290   -5.6197   -5.5942   -5.5247   -5.3441   -5.3071   -5.3034   -5.1612   -4.9574
   -4.8923   -4.8698   -4.7440   -4.5643   -1.2657   -1.2246   -1.1040   -1.0369   -0.8612   -0.7824
   -0.7434   -0.6917   -0.6786   -0.6368   -0.6241   -0.6089   -0.5602   -0.5318   -0.5270   -0.4224
   -0.4092   -0.3681   -0.3408   -0.3292   -0.2258   -0.1552    0.0006    0.0405    0.1647    0.2047
    0.2626    0.3463    0.3735    0.5229    0.6033    0.6617    0.7497    0.7713    0.7729    0.8643
    0.9992    1.0424    1.1792    1.2353    1.2680    1.3590    1.3883    1.5144    1.5895    1.7191
    1.7373    1.8388    1.8685    1.9166    2.0441    2.1331    2.3612    2.6035    2.6252    2.7191
    2.9595    3.0358    3.2190    3.4848    3.5449    3.6078    3.7082    3.8463    3.8639    4.0533
    4.2390    4.3326    4.8235    4.8587    4.9729    5.0802    5.1806    5.2035    5.3969    5.4485
    5.8067    5.8433    6.9085    6.9310    8.2480    8.3560    8.3957    8.5110    9.0753    9.1163
    9.2661    9.3511    9.5802    9.5946    9.7843    9.8172   10.7794   10.7817
  10  1  -15.9372  -15.6478  -15.6339  -15.2947  -15.2377  -15.1440  -14.8818  -14.7704  -14.5694  -14.5552
         -14.3529  -14.3113  -13.9812  -13.9154  -13.8798  -13.7922  -13.7583  -13.5415  -13.1989  -13.1875
  -13.1236  -12.6415  -12.1330  -11.7136  -11.7121  -11.2555  -11.2304  -11.1004  -11.0961  -10.9386
  -10.6160  -10.5288  -10.5071  -10.4855  -10.0138   -9.7850   -9.3980   -9.3575   -8.9148   -8.8032
   -8.7298   -8.5487   -8.5404   -8.4454   -8.3532   -8.0049   -7.9917   -7.7636   -7.7198   -7.6666
   -7.6241   -7.5459   -7.4903   -7.3155   -7.2947   -7.2757   -7.1869   -7.0948   -7.0520   -7.0226
   -6.9939   -6.8993   -6.8228   -6.7872   -6.7642   -6.5696   -6.5684   -6.4941   -6.3630   -6.3414
   -6.2838   -6.2362   -6.1778   -6.1446   -6.0829   -6.0355   -5.9229   -5.8812   -5.8135   -5.7486
   -5.7474   -5.7019   -5.6767   -5.6398   -5.5520   -5.3922   -5.3716   -5.3567   -5.2321   -5.0037
   -4.9022   -4.8890   -4.7762   -4.5916   -1.1702   -1.1182   -1.0190   -1.0066   -0.7540   -0.7358
   -0.6491   -0.5964   -0.5871   -0.5162   -0.5107   -0.4999   -0.4458   -0.4202   -0.3907   -0.3324
   -0.3058   -0.2651   -0.2612   -0.2179   -0.1137   -0.0734    0.0330    0.0666    0.1765    0.2217
    0.2872    0.3616    0.3878    0.5351    0.6069    0.6789    0.7600    0.7838    0.8039    0.8937
    1.0233    1.0822    1.2211    1.2649    1.2733    1.3765    1.3896    1.5448    1.6364    1.7679
    1.7805    1.8111    1.9078    1.9228    2.0625    2.1320    2.4308    2.6282    2.6358    2.7692
    2.9872    3.0877    3.2300    3.4736    3.5310    3.5718    3.6871    3.8072    3.8517    4.0286
    4.2422    4.3204    4.8521    4.8854    4.9691    5.0472    5.1640    5.1764    5.4715    5.5060
    5.7772    5.7923    6.9249    6.9437    8.2063    8.3138    8.3694    8.4874    9.0324    9.0706
    9.2272    9.3089    9.5233    9.5322    9.7792    9.8085   10.7339   10.7354
  11  1  -15.9130  -15.6245  -15.6098  -15.2720  -15.2144  -15.1210  -14.8592  -14.7491  -14.5463  -14.5335
         -14.3321  -14.2890  -13.9609  -13.8926  -13.8589  -13.7725  -13.7364  -13.5190  -13.1793  -13.1656
  -13.1100  -12.6189  -12.1082  -11.7237  -11.7216  -11.2631  -11.2380  -11.0947  -11.0923  -10.9385
  -10.6200  -10.5378  -10.5059  -10.4839  -10.0333   -9.7923   -9.4071   -9.3562   -8.9547   -8.7957
   -8.7381   -8.5472   -8.5430   -8.4391   -8.3577   -8.0468   -8.0270   -7.7990   -7.7858   -7.7204
   -7.6823   -7.6069   -7.5211   -7.3661   -7.3496   -7.3356   -7.2136   -7.1070   -7.0844   -7.0816
   -7.0436   -6.9725   -6.8666   -6.8343   -6.7948   -6.6373   -6.6211   -6.5335   -6.4341   -6.4245
   -6.3302   -6.2907   -6.1933   -6.1825   -6.1487   -6.1181   -5.9790   -5.9695   -5.8890   -5.7847
   -5.7745   -5.7475   -5.7230   -5.6987   -5.5696   -5.4649   -5.4591   -5.3718   -5.3162   -5.0376
   -4.9136   -4.9128   -4.7968   -4.6272   -1.0877   -1.0106   -0.9947   -0.9374   -0.7161   -0.6307
   -0.5631   -0.5085   -0.4991   -0.4131   -0.3979   -0.3923   -0.3266   -0.3204   -0.2640   -0.2515
   -0.2291   -0.1782   -0.1266   -0.0956   -0.0310    0.0417    0.0527    0.1521    0.1929    0.2532
    0.3231    0.3936    0.3993    0.5618    0.6206    0.7064    0.7708    0.8089    0.8520    0.9262
    1.0533    1.1329    1.2551    1.2781    1.3196    1.3703    1.4343    1.5807    1.6735    1.8021
    1.8184    1.8289    1.9321    1.9494    2.0853    2.1308    2.5088    2.6489    2.6568    2.8220
    3.0174    3.1383    3.2438    3.4679    3.5111    3.5360    3.6649    3.7648    3.8366    4.0020
    4.2428    4.3081    4.8173    4.9170    4.9551    5.0004    5.1569    5.1969    5.5010    5.6100
    5.7057    5.8077    6.9427    6.9580    8.1614    8.2695    8.3415    8.4624    8.9860    9.0211
    9.1851    9.2632    9.4620    9.4651    9.7767    9.8023   10.6861   10.6876
  12  1  -15.8863  -15.5988  -15.5833  -15.2471  -15.1887  -15.0956  -14.8343  -14.7258  -14.5208  -14.5095
         -14.3094  -14.2645  -13.9388  -13.8674  -13.8357  -13.7509  -13.7123  -13.4942  -13.1581  -13.1416
  -13.0957  -12.5942  -12.0808  -11.7356  -11.7327  -11.2724  -11.2471  -11.0892  -11.0888  -10.9391
  -10.6253  -10.5485  -10.5053  -10.4832  -10.0560   -9.8019   -9.4192   -9.3562   -9.0011   -8.7888
   -8.7481   -8.5481   -8.5466   -8.4350   -8.3629   -8.1102   -8.0560   -7.8550   -7.8379   -7.7795
   -7.7440   -7.6662   -7.5469   -7.4406   -7.4282   -7.3748   -7.2462   -7.1547   -7.1192   -7.1034
   -7.0871   -7.0397   -6.9266   -6.8816   -6.8197   -6.7044   -6.6825   -6.5709   -6.5210   -6.4824
   -6.3733   -6.3594   -6.2394   -6.2381   -6.2025   -6.1669   -6.0558   -6.0349   -5.9778   -5.8199
   -5.8065   -5.7807   -5.7686   -5.7517   -5.5866   -5.5548   -5.5244   -5.4227   -5.3703   -5.0649
   -4.9417   -4.9257   -4.8123   -4.6703   -1.0326   -0.9954   -0.9044   -0.8587   -0.6748   -0.5247
   -0.4984   -0.4444   -0.4087   -0.3238   -0.3103   -0.2842   -0.2354   -0.2233   -0.1912   -0.1629
   -0.0978   -0.0974   -0.0059    0.0266    0.0340    0.0992    0.1810    0.2133    0.2269    0.3278
    0.3669    0.4043    0.4543    0.6081    0.6513    0.7488    0.7919    0.8485    0.9138    0.9620
    1.0937    1.1954    1.2508    1.3419    1.3425    1.4020    1.4932    1.6220    1.6916    1.8223
    1.8687    1.8824    1.9482    1.9932    2.1132    2.1302    2.5943    2.6644    2.6900    2.8771
    3.0525    3.1824    3.2599    3.4669    3.4854    3.5044    3.6425    3.7212    3.8189    3.9772
    4.2416    4.2959    4.7514    4.9101    4.9344    4.9461    5.1848    5.2485    5.4909    5.6294
    5.7309    5.8653    6.9619    6.9738    8.1136    8.2235    8.3121    8.4364    8.9365    8.9678
    9.1402    9.2147    9.3939    9.3974    9.7783    9.8001   10.6374   10.6394
  13  1  -15.8571  -15.5707  -15.5542  -15.2198  -15.1606  -15.0678  -14.8072  -14.7005  -14.4929  -14.4834
         -14.2846  -14.2377  -13.9152  -13.8400  -13.8103  -13.7275  -13.6862  -13.4671  -13.1354  -13.1156
  -13.0810  -12.5673  -12.0510  -11.7492  -11.7457  -11.2836  -11.2577  -11.0858  -11.0840  -10.9407
  -10.6319  -10.5609  -10.5057  -10.4837  -10.0818   -9.8140   -9.4354   -9.3580   -9.0535   -8.7834
   -8.7601   -8.5535   -8.5513   -8.4359   -8.3695   -8.1765   -8.0946   -7.9237   -7.8786   -7.8432
   -7.8072   -7.7241   -7.5690   -7.5162   -7.5104   -7.4311   -7.2866   -7.2344   -7.1537   -7.1238
   -7.0999   -7.0936   -6.9941   -6.9328   -6.8505   -6.7640   -6.7446   -6.6368   -6.5823   -6.5341
   -6.4341   -6.4156   -6.3125   -6.2969   -6.2720   -6.1768   -6.1319   -6.0854   -6.0595   -5.8796
   -5.8471   -5.8417   -5.7809   -5.7770   -5.6650   -5.5924   -5.5815   -5.5043   -5.3870   -5.0902
   -4.9744   -4.9392   -4.8272   -4.7200   -1.0112   -1.0037   -0.8047   -0.7821   -0.6109   -0.4711
   -0.4353   -0.3854   -0.3323   -0.2519   -0.2354   -0.1916   -0.1606   -0.1513   -0.1327   -0.0515
   -0.0298    0.0269    0.0776    0.1081    0.1564    0.1779    0.2330    0.2785    0.3228    0.3958
    0.4116    0.4648    0.5447    0.6744    0.7026    0.8083    0.8314    0.9032    0.9886    1.0026
    1.1495    1.2409    1.2776    1.3392    1.4192    1.4743    1.5663    1.6688    1.6978    1.8651
    1.9134    1.9418    1.9795    2.0384    2.1323    2.1473    2.6819    2.6829    2.7317    2.9343
    3.0931    3.2138    3.2782    3.4588    3.4693    3.4785    3.6201    3.6801    3.7968    3.9605
    4.2398    4.2844    4.6684    4.8699    4.8861    4.9114    5.2434    5.3140    5.4528    5.5491
    5.8585    5.9548    6.9824    6.9909    8.0632    8.1766    8.2813    8.4097    8.8844    8.9110
    9.0927    9.1637    9.3199    9.3296    9.7857    9.8037   10.5895   10.5921
  14  1  -15.8254  -15.5403  -15.5227  -15.1904  -15.1302  -15.0377  -14.7778  -14.6732  -14.4627  -14.4552
         -14.2580  -14.2089  -13.8900  -13.8103  -13.7826  -13.7026  -13.6580  -13.4378  -13.1112  -13.0875
  -13.0661  -12.5383  -12.0188  -11.7646  -11.7606  -11.2969  -11.2699  -11.0835  -11.0795  -10.9434
  -10.6402  -10.5752  -10.5072  -10.4859  -10.1108   -9.8292   -9.4569   -9.3624   -9.1106   -8.7808
   -8.7743   -8.5682   -8.5565   -8.4457   -8.3785   -8.2362   -8.1453   -7.9883   -7.9193   -7.9103
   -7.8699   -7.7820   -7.5979   -7.5913   -7.5861   -7.4972   -7.3414   -7.3108   -7.2052   -7.1577
   -7.1372   -7.0935   -7.0469   -6.9900   -6.9053   -6.8074   -6.8028   -6.7165   -6.6354   -6.5848
   -6.5059   -6.4534   -6.3832   -6.3791   -6.3189   -6.2156   -6.1913   -6.1310   -6.1040   -5.9769
   -5.8842   -5.8813   -5.7976   -5.7928   -5.7633   -5.6518   -5.6066   -5.5663   -5.4014   -5.1160
   -5.0106   -4.9538   -4.8439   -4.7752   -1.0162   -1.0147   -0.7261   -0.6999   -0.5280   -0.4717
   -0.3706   -0.3337   -0.2759   -0.1986   -0.1670   -0.1179   -0.1131   -0.0863   -0.0511    0.0082
    0.0473    0.1209    0.1401    0.2285    0.2371    0.2465    0.2933    0.3457    0.4048    0.4141
    0.4991    0.6132    0.6481    0.7608    0.7702    0.8835    0.8951    0.9719    1.0522    1.0740
    1.2251    1.2441    1.3356    1.3656    1.5085    1.5606    1.6528    1.7054    1.7215    1.9178
    1.9489    2.0070    2.0335    2.0805    2.1436    2.1891    2.7008    2.7518    2.8030    2.9939
    3.1371    3.2282    3.2981    3.4321    3.4637    3.4734    3.5962    3.6492    3.7670    3.9601
    4.2384    4.2740    4.5755    4.8136    4.8243    4.8872    5.3147    5.3848    5.3991    5.4655
    5.9889    6.0611    7.0039    7.0092    8.0105    8.1294    8.2489    8.3826    8.8299    8.8506
    9.0428    9.1108    9.2438    9.2594    9.8009    9.8152   10.5444   10.5474
  15  1  -15.7913  -15.5076  -15.4887  -15.1587  -15.0975  -15.0053  -14.7463  -14.6440  -14.4302  -14.4248
         -14.2295  -14.1780  -13.8636  -13.7783  -13.7526  -13.6761  -13.6278  -13.4063  -13.0860  -13.0574
  -13.0514  -12.5072  -11.9844  -11.7820  -11.7778  -11.3127  -11.2836  -11.0824  -11.0759  -10.9476
  -10.6503  -10.5917  -10.5101  -10.4905  -10.1428   -9.8480   -9.4857   -9.3698   -9.1703   -8.7914
   -8.7820   -8.6023   -8.5615   -8.4650   -8.3913   -8.2779   -8.2084   -8.0478   -7.9795   -7.9597
   -7.9299   -7.8412   -7.6804   -7.6649   -7.6083   -7.5663   -7.4151   -7.3715   -7.2620   -7.2231
   -7.1760   -7.0796   -7.0680   -7.0541   -6.9776   -6.8733   -6.8309   -6.7914   -6.6949   -6.6361
   -6.5737   -6.4851   -6.4570   -6.4478   -6.3675   -6.2848   -6.2329   -6.1596   -6.1197   -6.0771
   -5.9349   -5.9210   -5.8528   -5.8175   -5.8000   -5.7304   -5.6208   -5.6108   -5.4163   -5.1436
   -5.0500   -4.9693   -4.8646   -4.8345   -1.0323   -1.0303   -0.6648   -0.6220   -0.4848   -0.4374
   -0.3263   -0.2935   -0.2423   -0.1617   -0.1053   -0.0806   -0.0526   -0.0089    0.0133    0.0312
    0.1246    0.1965    0.2068    0.2596    0.2639    0.3509    0.3873    0.4274    0.4589    0.4623
    0.6275    0.7562    0.7674    0.8457    0.8655    0.9717    0.9736    1.0539    1.1200    1.1623
    1.2607    1.3183    1.3374    1.4672    1.6089    1.6537    1.7223    1.7470    1.7851    1.9734
    1.9851    2.0755    2.1051    2.1115    2.1781    2.2400    2.7203    2.8019    2.9003    3.0574
    3.1691    3.2408    3.3193    3.4021    3.4615    3.4783    3.5684    3.6396    3.7290    3.9816
    4.2386    4.2653    4.4768    4.7509    4.7615    4.8649    5.3368    5.3784    5.3898    5.4560
    6.1190    6.1745    7.0263    7.0285    7.9558    8.0822    8.2147    8.3555    8.7734    8.7870
    8.9908    9.0564    9.1666    9.1874    9.8254    9.8364   10.5038   10.5071
  16  1  -15.7547  -15.4726  -15.4523  -15.1250  -15.0625  -14.9706  -14.7126  -14.6130  -14.3954  -14.3923
         -14.1992  -14.1451  -13.8361  -13.7442  -13.7202  -13.6482  -13.5958  -13.3726  -13.0599  -13.0373
  -13.0255  -12.4743  -11.9478  -11.8012  -11.7972  -11.3312  -11.2986  -11.0827  -11.0736  -10.9533
  -10.6623  -10.6103  -10.5147  -10.4982  -10.1772   -9.8707   -9.5238   -9.3813   -9.2300   -8.8112
   -8.7894   -8.6653   -8.5653   -8.4850   -8.4098   -8.3003   -8.2806   -8.1048   -8.0492   -8.0054
   -7.9800   -7.9031   -7.7611   -7.7358   -7.6343   -7.6300   -7.4887   -7.4296   -7.3224   -7.3029
   -7.2154   -7.1246   -7.0784   -7.0597   -7.0506   -6.9408   -6.8672   -6.8613   -6.7549   -6.6800
   -6.6424   -6.5245   -6.5233   -6.4978   -6.4160   -6.3508   -6.2638   -6.1830   -6.1724   -6.1253
   -6.0118   -5.9595   -5.9116   -5.8398   -5.8128   -5.8034   -5.6494   -5.6355   -5.4323   -5.1737
   -5.0921   -4.9859   -4.9035   -4.8827   -1.0559   -1.0453   -0.6112   -0.5642   -0.5023   -0.3533
   -0.2852   -0.2644   -0.2208   -0.1426   -0.0561   -0.0525    0.0063    0.0560    0.0566    0.0683
    0.1828    0.2594    0.2642    0.2667    0.2761    0.4052    0.4625    0.5180    0.5251    0.5773
    0.7398    0.8726    0.9130    0.9226    0.9763    1.0415    1.0773    1.1490    1.2149    1.2347
    1.3173    1.3375    1.4318    1.5774    1.7173    1.7280    1.7727    1.8273    1.8810    2.0254
    2.0310    2.1242    2.1650    2.1901    2.2330    2.3017    2.7399    2.8532    2.9977    3.1287
    3.1617    3.2857    3.3410    3.3710    3.4623    3.4845    3.5425    3.6540    3.6857    4.0258
    4.2417    4.2590    4.3748    4.6866    4.6995    4.8462    5.2697    5.2914    5.4615    5.5242
    6.2462    6.2893    7.0481    7.0499    7.8994    8.0355    8.1788    8.3284    8.7153    8.7204
    8.9369    9.0009    9.0892    9.1139    9.8609    9.8690   10.4701   10.4733
  17  1  -15.7157  -15.4353  -15.4135  -15.0891  -15.0252  -14.9337  -14.6768  -14.5803  -14.3583  -14.3578
         -14.1672  -14.1104  -13.8077  -13.7080  -13.6854  -13.6191  -13.5621  -13.3368  -13.0332  -13.0244
  -12.9919  -12.4395  -11.9091  -11.8223  -11.8192  -11.3525  -11.3149  -11.0849  -11.0729  -10.9607
  -10.6764  -10.6312  -10.5215  -10.5099  -10.2132   -9.8978   -9.5735   -9.3974   -9.2872   -8.8344
   -8.8047   -8.7536   -8.5670   -8.5006   -8.4361   -8.3573   -8.3126   -8.1632   -8.1177   -8.0643
   -8.0138   -7.9679   -7.8322   -7.8032   -7.6991   -7.6542   -7.5547   -7.4895   -7.3863   -7.3830
   -7.2599   -7.1992   -7.1347   -7.0719   -7.0392   -7.0092   -6.9231   -6.9183   -6.8130   -6.7131
   -6.7079   -6.5820   -6.5802   -6.5278   -6.4608   -6.3987   -6.3067   -6.2426   -6.2043   -6.1364
   -6.0897   -6.0001   -5.9564   -5.8778   -5.8540   -5.8278   -5.6867   -5.6503   -5.4500   -5.2064
   -5.1363   -5.0034   -4.9678   -4.9121   -1.0818   -1.0599   -0.5645   -0.5292   -0.5201   -0.3059
   -0.2440   -0.2243   -0.1936   -0.1373   -0.0335   -0.0106    0.0426    0.0810    0.0984    0.1423
    0.2146    0.2576    0.2751    0.3249    0.3310    0.4369    0.5131    0.5946    0.6252    0.7042
    0.8274    0.9827    1.0080    1.0283    1.0852    1.0898    1.2034    1.2572    1.2903    1.3355
    1.3474    1.4144    1.5446    1.6918    1.7700    1.8252    1.8670    1.9044    2.0019    2.0655
    2.0922    2.1679    2.2479    2.2876    2.2981    2.3756    2.7599    2.9095    3.0832    3.1353
    3.2135    3.3286    3.3582    3.3626    3.4641    3.4956    3.5282    3.6416    3.6871    4.0914
    4.2487    4.2550    4.2721    4.6246    4.6403    4.8329    5.2004    5.2030    5.5293    5.5872
    6.3679    6.4013    7.0685    7.0738    7.8418    7.9894    8.1409    8.3015    8.6513    8.6557
    8.8816    8.9446    9.0125    9.0394    9.9086    9.9142   10.4454   10.4485
  18  1  -15.6743  -15.3958  -15.3724  -15.0513  -14.9857  -14.8945  -14.6389  -14.5461  -14.3213  -14.3191
         -14.1337  -14.0739  -13.7786  -13.6698  -13.6483  -13.5890  -13.5268  -13.2990  -13.0130  -13.0065
  -12.9566  -12.4030  -11.8685  -11.8450  -11.8436  -11.3771  -11.3319  -11.0894  -11.0742  -10.9700
  -10.6926  -10.6544  -10.5307  -10.5265  -10.2499   -9.9297   -9.6355   -9.4191   -9.3404   -8.8620
   -8.8569   -8.8292   -8.5663   -8.5139   -8.4729   -8.4347   -8.3235   -8.2252   -8.1825   -8.1311
   -8.0383   -8.0340   -7.8877   -7.8665   -7.7605   -7.6812   -7.6130   -7.5508   -7.4642   -7.4459
   -7.3124   -7.2735   -7.2066   -7.0808   -7.0759   -7.0304   -6.9694   -6.9665   -6.8739   -6.7819
   -6.7221   -6.6456   -6.6247   -6.5547   -6.5005   -6.4282   -6.3833   -6.2675   -6.2245   -6.1961
   -6.1145   -6.0428   -5.9976   -5.9305   -5.8832   -5.8463   -5.7240   -5.6646   -5.4704   -5.2417
   -5.1820   -5.0345   -5.0221   -4.9439   -1.1074   -1.0739   -0.5356   -0.5284   -0.5093   -0.2944
   -0.2299   -0.1770   -0.1558   -0.1069   -0.0139    0.0177    0.0587    0.0969    0.1543    0.2051
    0.2106    0.2745    0.2784    0.3737    0.3962    0.4633    0.5598    0.6639    0.7159    0.8276
    0.8955    1.0514    1.1030    1.1108    1.1269    1.2141    1.3279    1.3479    1.3540    1.3895
    1.4689    1.5213    1.6462    1.8061    1.8216    1.9163    1.9615    2.0014    2.0983    2.1332
    2.1727    2.2299    2.3401    2.3699    2.3965    2.4626    2.7813    2.9717    3.1060    3.1525
    3.3029    3.3091    3.3830    3.4102    3.4673    3.5182    3.5443    3.6025    3.7318    4.1691
    4.1755    4.2549    4.2599    4.5690    4.5864    4.8264    5.1153    5.1311    5.5910    5.6436
    6.4821    6.5076    7.0890    7.0983    7.7835    7.9443    8.1012    8.2747    8.5805    8.5949
    8.8254    8.8879    8.9373    8.9641    9.9691    9.9728   10.4319   10.4347
  19  1  -15.6306  -15.3541  -15.3289  -15.0115  -14.9441  -14.8530  -14.5991  -14.5104  -14.2829  -14.2777
         -14.0987  -14.0359  -13.7491  -13.6295  -13.6087  -13.5581  -13.4901  -13.2591  -13.0039  -12.9802
  -12.9198  -12.3649  -11.8710  -11.8687  -11.8263  -11.4049  -11.3491  -11.0969  -11.0779  -10.9812
  -10.7108  -10.6798  -10.5490  -10.5427  -10.2862   -9.9666   -9.7087   -9.4471   -9.3900   -8.9685
   -8.8950   -8.8634   -8.5643   -8.5293   -8.5212   -8.5095   -8.3383   -8.2906   -8.2420   -8.2013
   -8.0993   -8.0553   -7.9262   -7.9251   -7.8191   -7.7105   -7.6665   -7.6122   -7.5393   -7.5044
   -7.3746   -7.3406   -7.2747   -7.1547   -7.0984   -7.0585   -6.9999   -6.9642   -6.9429   -6.8416
   -6.7334   -6.7016   -6.6594   -6.5799   -6.5370   -6.4624   -6.4490   -6.2771   -6.2685   -6.2430
   -6.1174   -6.0873   -6.0381   -5.9770   -5.9132   -5.8691   -5.7616   -5.6779   -5.4948   -5.2793
   -5.2287   -5.1001   -5.0418   -4.9795   -1.1313   -1.0867   -0.5474   -0.5125   -0.4899   -0.2916
   -0.2198   -0.1859   -0.1035   -0.0377    0.0022    0.0290    0.0711    0.1120    0.1846    0.2118
    0.2671    0.2762    0.2986    0.4184    0.4601    0.4894    0.6067    0.7198    0.7960    0.9408
    0.9470    1.1080    1.1366    1.1582    1.2379    1.3290    1.3745    1.3995    1.4494    1.5073
    1.6067    1.6255    1.7230    1.8901    1.9153    1.9927    2.0468    2.1134    2.1402    2.2608
    2.2824    2.3029    2.4388    2.4468    2.5142    2.5631    2.8061    3.0402    3.0789    3.2101
    3.2752    3.3880    3.4122    3.4501    3.4719    3.5607    3.5797    3.6078    3.7826    4.0702
    4.2567    4.2725    4.2772    4.5243    4.5415    4.8277    5.0298    5.0647    5.6455    5.6921
    6.5868    6.6058    7.1093    7.1233    7.7250    7.9001    8.0600    8.2481    8.5088    8.5333
    8.7687    8.8310    8.8642    8.8884   10.0427   10.0450   10.4319   10.4342
  20  1  -15.5845  -15.3103  -15.2831  -14.9699  -14.9003  -14.8095  -14.5573  -14.4734  -14.2425  -14.2342
         -14.0624  -13.9965  -13.7193  -13.5873  -13.5668  -13.5267  -13.4524  -13.2173  -12.9975  -12.9552
  -12.8818  -12.3255  -11.9010  -11.8934  -11.7828  -11.4363  -11.3661  -11.1077  -11.0842  -10.9943
  -10.7310  -10.7073  -10.5779  -10.5577  -10.3212  -10.0086   -9.7908   -9.4820   -9.4378   -9.0845
   -8.9348   -8.9072   -8.5907   -8.5891   -8.5532   -8.5411   -8.3608   -8.3576   -8.2943   -8.2676
   -8.1620   -8.0669   -7.9789   -7.9506   -7.8762   -7.7422   -7.7184   -7.6698   -7.6097   -7.5573
   -7.4430   -7.3973   -7.3378   -7.2274   -7.1576   -7.0756   -7.0332   -7.0068   -6.9386   -6.8880
   -6.7708   -6.7194   -6.6867   -6.6028   -6.5794   -6.5254   -6.4727   -6.3247   -6.2826   -6.2623
   -6.1336   -6.1187   -6.0779   -6.0165   -5.9462   -5.8967   -5.7995   -5.6897   -5.5255   -5.3189
   -5.2758   -5.1618   -5.0628   -5.0190   -1.1524   -1.0981   -0.5543   -0.5081   -0.4771   -0.2857
   -0.2124   -0.2001   -0.0645    0.0108    0.0252    0.0375    0.0902    0.1271    0.1662    0.2464
    0.2879    0.3108    0.3270    0.4603    0.5154    0.5240    0.6534    0.7632    0.8655    0.9841
    1.0389    1.1396    1.1866    1.2035    1.3286    1.3948    1.4308    1.4462    1.5561    1.6104
    1.7091    1.7511    1.7747    1.9688    2.0104    2.0724    2.1237    2.1987    2.2242    2.3742
    2.3816    2.4241    2.5260    2.5413    2.6358    2.6778    2.8361    3.0567    3.1145    3.2554
    3.2601    3.4046    3.4593    3.4787    3.5107    3.5682    3.6481    3.6992    3.8359    3.9786
    4.2609    4.2905    4.3844    4.4961    4.5131    4.8361    4.9487    5.0058    5.6923    5.7323
    6.6809    6.6944    7.1292    7.1486    7.6671    7.8570    8.0178    8.2215    8.4373    8.4715
    8.7123    8.7738    8.7936    8.8127   10.1289   10.1304   10.4468   10.4488
  21  1  -15.5361  -15.2644  -15.2350  -14.9265  -14.8544  -14.7637  -14.5138  -14.4354  -14.2003  -14.1886
         -14.0249  -13.9560  -13.6893  -13.5433  -13.5225  -13.4951  -13.4139  -13.1736  -12.9944  -12.9322
  -12.8427  -12.2849  -11.9340  -11.9180  -11.7383  -11.4713  -11.3819  -11.1224  -11.0935  -11.0090
  -10.7527  -10.7369  -10.6128  -10.5762  -10.3548  -10.0557   -9.8790   -9.5240   -9.4858   -9.2029
   -8.9827   -8.9600   -8.6742   -8.6563   -8.5571   -8.5513   -8.4234   -8.3930   -8.3373   -8.3244
   -8.2220   -8.0747   -8.0280   -7.9654   -7.9324   -7.7859   -7.7621   -7.7190   -7.6754   -7.6028
   -7.5100   -7.4461   -7.3953   -7.2960   -7.2220   -7.1122   -7.0940   -7.0219   -6.9220   -6.9087
   -6.8107   -6.7200   -6.7100   -6.6357   -6.6244   -6.5622   -6.5070   -6.3599   -6.2872   -6.2811
   -6.1812   -6.1217   -6.1151   -6.0501   -5.9822   -5.9291   -5.8373   -5.7001   -5.5649   -5.3601
   -5.3227   -5.2168   -5.0851   -5.0621   -1.1700   -1.1077   -0.5560   -0.5054   -0.4768   -0.2751
   -0.2142   -0.2063   -0.0364    0.0121    0.0201    0.0918    0.1287    0.1296    0.1624    0.2425
    0.3160    0.3367    0.3795    0.5005    0.5475    0.5823    0.6993    0.7977    0.9251    1.0100
    1.1162    1.1630    1.2439    1.2455    1.3817    1.4223    1.5014    1.5111    1.6334    1.6975
    1.7888    1.8086    1.8717    2.0490    2.0896    2.1614    2.1976    2.2682    2.3264    2.4634
    2.4894    2.5714    2.6036    2.6410    2.7567    2.8043    2.8729    3.0415    3.1935    3.2502
    3.3055    3.4153    3.4637    3.5364    3.5703    3.5888    3.7546    3.7943    3.8744    3.9197
    4.2699    4.3044    4.4649    4.4880    4.5422    4.8450    4.8747    4.9651    5.7312    5.7639
    6.7634    6.7725    7.1481    7.1743    7.6104    7.8150    7.9754    8.1948    8.3670    8.4102
    8.6566    8.7159    8.7262    8.7377   10.2266   10.2280   10.4778   10.4794
  22  1  -15.4855  -15.2165  -15.1846  -14.8815  -14.8065  -14.7159  -14.4684  -14.3964  -14.1563  -14.1410
         -13.9864  -13.9148  -13.6593  -13.4975  -13.4760  -13.4637  -13.3753  -13.1281  -12.9950  -12.9123
  -12.8027  -12.2434  -11.9700  -11.9417  -11.6935  -11.5099  -11.3956  -11.1415  -11.1059  -11.0250
  -10.7757  -10.7682  -10.6527  -10.5983  -10.3873  -10.1075   -9.9710   -9.5733   -9.5355   -9.3221
   -9.0396   -9.0205   -8.7722   -8.7243   -8.5741   -8.5485   -8.4841   -8.4354   -8.3720   -8.3700
   -8.2786   -8.0805   -8.0727   -7.9877   -7.9750   -7.8430   -7.7960   -7.7568   -7.7368   -7.6406
   -7.5712   -7.4883   -7.4472   -7.3583   -7.2812   -7.1945   -7.1203   -7.0277   -6.9457   -6.8780
   -6.8370   -6.7358   -6.7188   -6.6883   -6.6464   -6.5862   -6.5482   -6.3790   -6.2992   -6.2931
   -6.2294   -6.1529   -6.1222   -6.0787   -6.0211   -5.9661   -5.8745   -5.7092   -5.6146   -5.4026
   -5.3688   -5.2630   -5.1087   -5.1085   -1.1837   -1.1151   -0.5521   -0.5017   -0.4855   -0.2644
   -0.2270   -0.2008   -0.0134   -0.0054    0.0261    0.1170    0.1274    0.1748    0.1824    0.2349
    0.3167    0.3766    0.4386    0.5395    0.5808    0.6385    0.7440    0.8273    0.9759    1.0290
    1.1683    1.1865    1.2816    1.3019    1.3968    1.4534    1.5656    1.5778    1.6629    1.7810
    1.8316    1.8605    1.9592    2.1271    2.1726    2.2445    2.2670    2.3398    2.4158    2.5448
    2.6036    2.6703    2.7178    2.7312    2.8766    2.9210    2.9346    3.0363    3.2647    3.2755
    3.3499    3.4367    3.4725    3.5920    3.6300    3.6388    3.8172    3.8714    3.8755    3.9899
    4.2895    4.3149    4.4840    4.4998    4.6614    4.8123    4.8376    4.9640    5.7625    5.7870
    6.8340    6.8402    7.1657    7.2002    7.5557    7.7746    7.9337    8.1683    8.2990    8.3503
    8.6024    8.6554    8.6634    8.6646   10.3346   10.3363   10.5251   10.5266
  23  1  -15.4327  -15.1667  -15.1321  -14.8349  -14.7567  -14.6660  -14.4215  -14.3568  -14.1105  -14.0914
         -13.9472  -13.8735  -13.6292  -13.4502  -13.4329  -13.4273  -13.3374  -13.0809  -12.9993  -12.8969
  -12.7622  -12.2012  -12.0090  -11.9632  -11.6491  -11.5521  -11.4064  -11.1655  -11.1217  -11.0416
  -10.8011  -10.7996  -10.6958  -10.6243  -10.4195  -10.1636  -10.0649   -9.6296   -9.5880   -9.4413
   -9.1050   -9.0873   -8.8800   -8.7940   -8.5922   -8.5476   -8.5354   -8.4893   -8.4123   -8.3928
   -8.3315   -8.1131   -8.0860   -8.0408   -7.9843   -7.8988   -7.8348   -7.7941   -7.7793   -7.6710
   -7.6243   -7.5255   -7.4934   -7.4114   -7.3323   -7.2703   -7.1529   -7.0311   -6.9610   -6.8577
   -6.8409   -6.7747   -6.7203   -6.7187   -6.6699   -6.6057   -6.5867   -6.3929   -6.3163   -6.3052
   -6.2749   -6.1836   -6.1256   -6.1028   -6.0623   -6.0069   -5.9105   -5.7173   -5.6748   -5.4457
   -5.4138   -5.3001   -5.1580   -5.1336   -1.1930   -1.1201   -0.5427   -0.4984   -0.4956   -0.2584
   -0.2373   -0.1953   -0.0241    0.0093    0.0310    0.1025    0.1548    0.1892    0.2262    0.2358
    0.3149    0.4075    0.5030    0.5772    0.6157    0.6912    0.7877    0.8551    1.0192    1.0449
    1.1981    1.2087    1.3103    1.3480    1.3954    1.4900    1.6227    1.6286    1.6636    1.8479
    1.8546    1.9286    2.0079    2.1991    2.2641    2.3113    2.3254    2.4065    2.4894    2.6195
    2.7151    2.7164    2.8053    2.8596    2.9879    2.9952    3.0466    3.0592    3.2983    3.3583
    3.4019    3.4755    3.4849    3.6499    3.6844    3.6922    3.7977    3.9161    3.9902    4.1026
    4.3251    4.3272    4.5073    4.5271    4.7679    4.7936    4.8232    5.0026    5.7864    5.8021
    6.8929    6.8980    7.1816    7.2263    7.5037    7.7360    7.8939    8.1420    8.2344    8.2931
    8.5502    8.5913    8.5935    8.6070   10.4514   10.4535   10.5880   10.5896
  24  1  -15.3776  -15.1149  -15.0774  -14.7870  -14.7050  -14.6141  -14.3731  -14.3169  -14.0631  -14.0400
         -13.9075  -13.8327  -13.5990  -13.4035  -13.4011  -13.3765  -13.3017  -13.0320  -13.0069  -12.8871
  -12.7217  -12.1588  -12.0510  -11.9813  -11.6062  -11.5977  -11.4134  -11.1946  -11.1406  -11.0580
  -10.8352  -10.8238  -10.7398  -10.6543  -10.4527  -10.2235  -10.1593   -9.6923   -9.6439   -9.5595
   -9.1779   -9.1590   -8.9936   -8.8677   -8.6123   -8.5748   -8.5550   -8.5485   -8.4456   -8.4079
   -8.3806   -8.1496   -8.0917   -8.0894   -7.9997   -7.9491   -7.8766   -7.8475   -7.7890   -7.6952
   -7.6674   -7.5610   -7.5339   -7.4516   -7.3741   -7.3351   -7.1880   -7.0341   -6.9704   -6.8605
   -6.8189   -6.8158   -6.7377   -6.7266   -6.6890   -6.6235   -6.6176   -6.4091   -6.3395   -6.3317
   -6.3029   -6.2069   -6.1300   -6.1229   -6.1049   -6.0506   -5.9445   -5.7437   -5.7248   -5.4891
   -5.4571   -5.3295   -5.2099   -5.1599   -1.1978   -1.1222   -0.5281   -0.5115   -0.4871   -0.2608
   -0.2426   -0.1896   -0.0417    0.0315    0.0361    0.0888    0.1700    0.2026    0.2459    0.2598
    0.3118    0.4381    0.5683    0.6128    0.6518    0.7395    0.8303    0.8835    1.0561    1.0599
    1.2121    1.2272    1.3244    1.3495    1.4213    1.5243    1.6316    1.6646    1.6911    1.8611
    1.9151    1.9961    2.0289    2.2566    2.3396    2.3682    2.3698    2.4660    2.5465    2.6775
    2.7421    2.8237    2.8621    2.9933    3.0675    3.0839    3.1109    3.1716    3.3421    3.4375
    3.4721    3.5008    3.5299    3.6978    3.7106    3.7460    3.8451    3.9498    4.1073    4.2277
    4.3493    4.3750    4.5378    4.5651    4.7508    4.8049    4.9443    5.0631    5.8030    5.8101
    6.9413    6.9463    7.1952    7.2526    7.4552    7.7002    7.8572    8.1165    8.1742    8.2398
    8.5005    8.5223    8.5325    8.5516   10.5752   10.5777   10.6653   10.6671
  25  1  -15.3205  -15.0614  -15.0206  -14.7379  -14.6515  -14.5602  -14.3233  -14.2769  -14.0141  -13.9867
         -13.8675  -13.7936  -13.5683  -13.3753  -13.3514  -13.3236  -13.2706  -13.0160  -12.9816  -12.8846
  -12.6814  -12.1163  -12.0958  -11.9945  -11.6464  -11.5662  -11.4160  -11.2290  -11.1626  -11.0732
  -10.8703  -10.8476  -10.7820  -10.6882  -10.4875  -10.2864  -10.2528   -9.7606   -9.7036   -9.6760
   -9.2568   -9.2343   -9.1102   -8.9458   -8.6549   -8.6104   -8.6022   -8.5504   -8.4736   -8.4265
   -8.4189   -8.1826   -8.1308   -8.0983   -8.0290   -7.9919   -7.9132   -7.8970   -7.7896   -7.7142
   -7.6987   -7.5975   -7.5687   -7.4758   -7.4063   -7.3864   -7.2223   -7.0371   -6.9773   -6.8617
   -6.8578   -6.7955   -6.7511   -6.7502   -6.6900   -6.6409   -6.6406   -6.4312   -6.3880   -6.3455
   -6.3222   -6.2213   -6.1504   -6.1375   -6.1354   -6.0959   -5.9754   -5.8186   -5.7320   -5.5320
   -5.4986   -5.3533   -5.2639   -5.1877   -1.1977   -1.1210   -0.5233   -0.5085   -0.4753   -0.2696
   -0.2435   -0.1832   -0.0564    0.0415    0.0488    0.0762    0.1771    0.2145    0.2681    0.2782
    0.3083    0.4730    0.6324    0.6454    0.6887    0.7828    0.8719    0.9133    1.0750    1.0873
    1.2130    1.2378    1.3229    1.3270    1.4659    1.5266    1.6377    1.6893    1.7309    1.8718
    1.9664    2.0288    2.0668    2.2863    2.3692    2.3987    2.4401    2.5188    2.5889    2.7079
    2.7599    2.9062    2.9293    3.1161    3.1251    3.1739    3.2216    3.2713    3.3817    3.5076
    3.5251    3.5595    3.5978    3.6979    3.7720    3.8125    3.9043    3.9973    4.2190    4.3505
    4.3871    4.4361    4.5717    4.6128    4.7682    4.8146    5.0891    5.1366    5.8078    5.8170
    6.9809    6.9852    7.2061    7.2790    7.4107    7.6682    7.8248    8.0919    8.1192    8.1914
    8.4515    8.4588    8.4741    8.4979   10.7040   10.7068   10.7548   10.7569
  26  1  -15.2613  -15.0062  -14.9618  -14.6877  -14.5963  -14.5044  -14.2723  -14.2371  -13.9636  -13.9318
         -13.8276  -13.7573  -13.5365  -13.3496  -13.3005  -13.2689  -13.2485  -13.0231  -12.9298  -12.8902
  -12.6421  -12.1432  -12.0743  -12.0019  -11.6978  -11.5307  -11.4138  -11.2683  -11.1874  -11.0864
  -10.9061  -10.8702  -10.8194  -10.7260  -10.5246  -10.3516  -10.3446   -9.8336   -9.7910   -9.7662
   -9.3402   -9.3121   -9.2279   -9.0275   -8.7409   -8.6311   -8.6193   -8.5521   -8.4983   -8.4706
   -8.4295   -8.2124   -8.1624   -8.1104   -8.0714   -8.0252   -7.9426   -7.9409   -7.7842   -7.7288
   -7.7178   -7.6341   -7.5978   -7.4849   -7.4292   -7.4241   -7.2536   -7.0403   -6.9859   -6.8881
   -6.8623   -6.7927   -6.7772   -6.7600   -6.6791   -6.6583   -6.6553   -6.4588   -6.4387   -6.3585
   -6.3450   -6.2279   -6.1941   -6.1519   -6.1449   -6.1372   -6.0026   -5.8968   -5.7393   -5.5740
   -5.5378   -5.3740   -5.3189   -5.2168   -1.1926   -1.1163   -0.5322   -0.4847   -0.4606   -0.2803
   -0.2426   -0.1761   -0.0670    0.0472    0.0566    0.0646    0.1874    0.2245    0.2626    0.3045
    0.3169    0.5109    0.6738    0.6944    0.7258    0.8205    0.9125    0.9447    1.0901    1.1125
    1.1995    1.2309    1.3003    1.3263    1.4910    1.5101    1.6735    1.6987    1.7651    1.8830
    2.0102    2.0192    2.1328    2.2813    2.3766    2.4248    2.4992    2.5593    2.6207    2.7119
    2.7809    2.9425    3.0305    3.1891    3.2259    3.2714    3.3258    3.3619    3.4082    3.5634
    3.5664    3.6519    3.6752    3.7072    3.8316    3.8871    3.9512    4.0626    4.3200    4.4435
    4.4449    4.5264    4.6095    4.6746    4.8172    4.8462    5.2174    5.2345    5.8022    5.8229
    7.0118    7.0174    7.2139    7.3054    7.3708    7.6412    7.7977    8.0686    8.0703    8.1494
    8.3926    8.4126    8.4187    8.4463   10.8359   10.8389   10.8541   10.8566
  27  1  -15.2002  -14.9495  -14.9011  -14.6368  -14.5396  -14.4468  -14.2203  -14.1981  -13.9117  -13.8752
         -13.7881  -13.7256  -13.5027  -13.3269  -13.2492  -13.2414  -13.2123  -13.0230  -12.9048  -12.8768
  -12.6043  -12.1925  -12.0332  -12.0033  -11.7508  -11.5017  -11.4077  -11.3118  -11.2147  -11.0974
  -10.9420  -10.8904  -10.8483  -10.7674  -10.5644  -10.4335  -10.4180   -9.9102   -9.9027   -9.8328
   -9.4269   -9.3917   -9.3453   -9.1115   -8.8399   -8.6438   -8.6281   -8.5529   -8.5252   -8.5123
   -8.4416   -8.2391   -8.1832   -8.1466   -8.1001   -8.0484   -7.9838   -7.9630   -7.7752   -7.7395
   -7.7255   -7.6674   -7.6212   -7.4820   -7.4492   -7.4435   -7.2810   -7.0438   -6.9991   -6.9091
   -6.8670   -6.8155   -6.7892   -6.7670   -6.6818   -6.6766   -6.6423   -6.4896   -6.4894   -6.3726
   -6.3723   -6.2381   -6.2298   -6.1838   -6.1658   -6.1452   -6.0274   -5.9731   -5.7469   -5.6146
[...]
   -0.2083   -0.0866   -0.0607   -0.0181    0.0542    0.0578    0.0931    0.2151    0.2315    0.2952
    0.4913    0.6508    0.7256    0.7657    0.9257    1.0110    1.0397    1.0599    1.0723    1.1502
    1.1670    1.2385    1.2426    1.2855    1.4157    1.6516    1.6740    1.6961    1.7995    1.9346
    2.0268    2.0459    2.1139    2.1716    2.1887    2.3923    2.6314    2.7300    2.7634    2.9684
    3.0010    3.0239    3.2952    3.4445    3.5256    3.6861    3.8002    3.8038    3.8367    3.8764
    3.8996    4.0415    4.0779    4.1518    4.2983    4.3378    4.5148    4.5501    4.7068    5.0062
    5.0118    5.0871    5.2790    5.3757    5.4098    5.4415    5.6357    5.8093    5.8298    6.1428
    7.0527    7.2031    7.2167    7.2188    7.5151    7.6636    7.7660    7.9180    7.9744    8.0462
    8.1045    8.1197    8.1526    8.2020   11.6984   11.7026   11.7850   11.7892
  35  1  -14.6544  -14.4604  -14.3600  -14.2371  -14.0507  -13.9665  -13.9351  -13.8040  -13.7292  -13.6334
         -13.5547  -13.4754  -13.4001  -13.3192  -13.3104  -13.1688  -12.9957  -12.8268  -12.7193  -12.4664
  -12.4524  -12.4481  -12.2678  -11.8016  -11.7649  -11.7585  -11.4977  -11.4275  -11.3774  -11.1875
  -11.1477  -11.0244  -10.9503  -10.9289  -10.8692  -10.8274  -10.6606  -10.5494  -10.5228  -10.4248
  -10.1746  -10.0969  -10.0105   -9.7941   -9.6779   -9.2086   -8.6382   -8.5907   -8.5617   -8.5578
   -8.4550   -8.3517   -8.2575   -8.1972   -8.1820   -8.1489   -8.0802   -8.0264   -7.7781   -7.6964
   -7.6640   -7.6362   -7.5877   -7.3959   -7.3791   -7.3616   -7.2967   -7.1359   -7.1283   -7.0595
   -7.0259   -7.0188   -6.9372   -6.9085   -6.8692   -6.8187   -6.7657   -6.6553   -6.6375   -6.6200
   -6.5827   -6.3842   -6.3822   -6.3574   -6.3039   -6.1835   -6.0897   -6.0750   -5.8413   -5.8320
   -5.7703   -5.7162   -5.5311   -5.5296   -0.9242   -0.8861   -0.4657   -0.2787   -0.2481   -0.2181
   -0.1705   -0.1093   -0.0580   -0.0233    0.0313    0.0905    0.0918    0.2037    0.2252    0.2941
    0.4444    0.6671    0.6783    0.7733    0.9215    1.0161    1.0244    1.0649    1.0878    1.1557
    1.1752    1.2565    1.2649    1.3089    1.4222    1.6349    1.6500    1.6643    1.7846    1.8823
    2.0467    2.0634    2.0992    2.1578    2.2140    2.3841    2.6672    2.7448    2.7705    2.9651
    3.0180    3.0765    3.2634    3.4443    3.5308    3.7305    3.8144    3.8219    3.8636    3.9192
    3.9284    4.0632    4.1383    4.1803    4.3381    4.3719    4.5478    4.5992    4.7259    5.0357
    5.0642    5.1395    5.3189    5.4335    5.4664    5.4929    5.6281    5.8119    5.8929    6.1961
    7.0646    7.2007    7.2134    7.2353    7.5417    7.6822    7.7737    7.9206    7.9780    8.0465
    8.0965    8.1041    8.1316    8.1886   11.7788   11.7831   11.8686   11.8729
  36  1  -14.5828  -14.3998  -14.2894  -14.1950  -13.9901  -13.9549  -13.8703  -13.7590  -13.7573  -13.7024
         -13.5505  -13.4284  -13.3847  -13.3777  -13.2897  -13.1351  -13.0335  -12.7971  -12.6579  -12.4642
  -12.4491  -12.4106  -12.3137  -11.8667  -11.7402  -11.7272  -11.5286  -11.4189  -11.3994  -11.2438
  -11.1378  -11.0141  -10.9655  -10.9553  -10.8974  -10.7879  -10.7004  -10.5844  -10.5081  -10.4956
  -10.2461  -10.1609  -10.0719   -9.8730   -9.7657   -9.3071   -8.6305   -8.5893   -8.5557   -8.5489
   -8.4450   -8.3572   -8.2477   -8.1990   -8.1847   -8.1499   -8.0854   -8.0243   -7.7681   -7.6801
   -7.6596   -7.6238   -7.5593   -7.3974   -7.3519   -7.3438   -7.2884   -7.1679   -7.1460   -7.0485
   -7.0482   -7.0295   -6.9605   -6.9446   -6.8957   -6.8534   -6.8069   -6.6664   -6.6646   -6.6293
   -6.5937   -6.4027   -6.3669   -6.3668   -6.3132   -6.1607   -6.1156   -6.0621   -5.8551   -5.8393
   -5.7844   -5.7218   -5.5665   -5.5515   -0.8738   -0.8416   -0.4500   -0.2902   -0.2295   -0.1994
   -0.1707   -0.1118   -0.0422   -0.0275    0.0036    0.0947    0.1227    0.1931    0.2225    0.2888
    0.3998    0.6075    0.7012    0.7760    0.9177    1.0024    1.0174    1.0786    1.1074    1.1541
    1.1847    1.2791    1.2893    1.3308    1.4283    1.5736    1.6294    1.6759    1.7662    1.8324
    2.0211    2.0823    2.0908    2.1733    2.2402    2.3951    2.7018    2.7601    2.7715    2.9564
    3.0103    3.1481    3.2314    3.4432    3.5337    3.7678    3.8264    3.8293    3.8850    3.9543
    3.9577    4.0804    4.1856    4.2121    4.3704    4.4008    4.5740    4.6346    4.7451    5.0475
    5.1165    5.1857    5.3468    5.4652    5.5141    5.5351    5.6401    5.8153    5.9537    6.2321
    7.0828    7.1988    7.2120    7.2467    7.5678    7.6991    7.7812    7.9245    7.9842    8.0444
    8.0935    8.0953    8.1131    8.1767   11.8487   11.8530   11.9408   11.9451
  37  1  -14.5127  -14.3416  -14.2202  -14.1569  -13.9483  -13.9321  -13.8197  -13.7762  -13.7709  -13.7180
         -13.5610  -13.4263  -13.4041  -13.3880  -13.2397  -13.1086  -13.0741  -12.7802  -12.5996  -12.4591
  -12.4502  -12.3758  -12.3477  -11.9297  -11.7185  -11.6997  -11.5527  -11.4192  -11.4123  -11.2977
  -11.1268  -11.0180  -10.9839  -10.9499  -10.9165  -10.7461  -10.7354  -10.6387  -10.5635  -10.4654
  -10.2991  -10.2166  -10.1252   -9.9470   -9.8418   -9.4012   -8.6230   -8.5873   -8.5512   -8.5390
   -8.4352   -8.3617   -8.2376   -8.1998   -8.1875   -8.1498   -8.0902   -8.0228   -7.7553   -7.6635
   -7.6586   -7.6114   -7.5291   -7.3986   -7.3241   -7.3236   -7.2886   -7.2068   -7.1556   -7.0661
   -7.0500   -7.0254   -6.9820   -6.9703   -6.9197   -6.8888   -6.8521   -6.6944   -6.6703   -6.6365
   -6.5947   -6.4307   -6.3616   -6.3537   -6.3201   -6.1452   -6.1381   -6.0509   -5.8653   -5.8428
   -5.7970   -5.7192   -5.6022   -5.5723   -0.8218   -0.7954   -0.4337   -0.3119   -0.2249   -0.2170
   -0.1667   -0.0729   -0.0347   -0.0246   -0.0194    0.1046    0.1422    0.1902    0.2223    0.2797
    0.3567    0.5487    0.7195    0.7753    0.9159    0.9909    1.0168    1.0933    1.1214    1.1469
    1.1944    1.3050    1.3112    1.3498    1.4350    1.5173    1.6132    1.6863    1.7451    1.7866
    1.9908    2.0606    2.1009    2.2229    2.2457    2.4287    2.7330    2.7664    2.7751    2.9425
    3.0020    3.2010    3.2130    3.4435    3.5342    3.7964    3.8280    3.8377    3.9022    3.9764
    3.9908    4.0933    4.2088    4.2579    4.3954    4.4245    4.5938    4.6528    4.7692    5.0492
    5.1630    5.2250    5.3621    5.4722    5.5529    5.5730    5.6673    5.8186    6.0115    6.2515
    7.1063    7.1975    7.2117    7.2520    7.5923    7.7129    7.7881    7.9288    7.9925    8.0393
    8.0921    8.0950    8.0970    8.1657   11.9070   11.9115   12.0008   12.0052
  38  1  -14.4458  -14.2875  -14.1544  -14.1243  -13.9469  -13.8785  -13.8365  -13.8342  -13.7344  -13.6827
         -13.5907  -13.4578  -13.4331  -13.3592  -13.1855  -13.1102  -13.0904  -12.7789  -12.5478  -12.4541
  -12.4480  -12.3671  -12.3498  -11.9886  -11.7006  -11.6775  -11.5681  -11.4344  -11.4096  -11.3470
  -11.1179  -11.0192  -10.9957  -10.9419  -10.9270  -10.7578  -10.7132  -10.6762  -10.6244  -10.4400
  -10.3264  -10.2629  -10.1685  -10.0135   -9.9004   -9.4880   -8.6163   -8.5852   -8.5464   -8.5311
   -8.4263   -8.3656   -8.2280   -8.2004   -8.1896   -8.1497   -8.0944   -8.0218   -7.7406   -7.6613
   -7.6475   -7.6008   -7.4976   -7.3963   -7.3088   -7.3049   -7.2834   -7.2429   -7.1658   -7.0804
   -7.0609   -7.0283   -6.9993   -6.9685   -6.9398   -6.9221   -6.8932   -6.7221   -6.6732   -6.6426
   -6.5899   -6.4588   -6.3491   -6.3442   -6.3247   -6.1764   -6.1178   -6.0422   -5.8721   -5.8424
   -5.8077   -5.7106   -5.6354   -5.5930   -0.7702   -0.7492   -0.4167   -0.3389   -0.2680   -0.2336
   -0.1295   -0.0506   -0.0329   -0.0251   -0.0050    0.1184    0.1417    0.2025    0.2228    0.2676
    0.3147    0.4933    0.7332    0.7734    0.9173    0.9893    1.0149    1.1071    1.1251    1.1401
    1.2033    1.3273    1.3301    1.3641    1.4426    1.4725    1.6027    1.6939    1.7229    1.7463
    1.9661    2.0305    2.1184    2.2391    2.2740    2.4734    2.7562    2.7588    2.7893    2.9243
    2.9938    3.1744    3.2680    3.4464    3.5331    3.8150    3.8206    3.8491    3.9160    3.9940
    4.0178    4.1021    4.2224    4.3030    4.4137    4.4432    4.6080    4.6561    4.7973    5.0435
    5.2040    5.2565    5.3642    5.4709    5.5826    5.6044    5.6978    5.8205    6.0658    6.2559
    7.1331    7.1967    7.2121    7.2510    7.6142    7.7231    7.7940    7.9326    8.0024    8.0332
    8.0809    8.0938    8.0996    8.1552   11.9532   11.9577   12.0481   12.0525
  39  1  -14.3862  -14.2408  -14.0989  -14.0959  -13.9510  -13.8921  -13.8643  -13.8328  -13.6824  -13.6550
         -13.6313  -13.4749  -13.4620  -13.3477  -13.1363  -13.1331  -13.0807  -12.7906  -12.5095  -12.4509
  -12.4378  -12.3731  -12.3332  -12.0399  -11.6871  -11.6616  -11.5747  -11.4442  -11.4110  -11.3885
  -11.1117  -11.0190  -10.9977  -10.9347  -10.9306  -10.7731  -10.7325  -10.6756  -10.6561  -10.4276
  -10.3370  -10.2983  -10.2001  -10.0685   -9.9348   -9.5627   -8.6110   -8.5834   -8.5420   -8.5256
   -8.4189   -8.3689   -8.2195   -8.2013   -8.1908   -8.1498   -8.0977   -8.0213   -7.7253   -7.6675
   -7.6331   -7.5939   -7.4662   -7.3883   -7.3209   -7.3002   -7.2651   -7.2574   -7.1768   -7.0924
   -7.0704   -7.0459   -7.0096   -6.9550   -6.9516   -6.9513   -6.9189   -6.7490   -6.6741   -6.6478
   -6.5819   -6.4841   -6.3380   -6.3323   -6.3276   -6.2068   -6.1016   -6.0363   -5.8756   -5.8396
   -5.8152   -5.6981   -5.6642   -5.6132   -0.7230   -0.7064   -0.4000   -0.3673   -0.3156   -0.2523
   -0.0949   -0.0612   -0.0239   -0.0047    0.0216    0.1330    0.1336    0.2182    0.2225    0.2536
    0.2761    0.4456    0.7427    0.7723    0.9214    0.9943    1.0121    1.1131    1.1202    1.1413
    1.2109    1.3371    1.3456    1.3728    1.4441    1.4541    1.5979    1.6979    1.7023    1.7135
    1.9497    2.0052    2.1338    2.2289    2.3181    2.5170    2.7435    2.7779    2.8012    2.9044
    2.9864    3.1537    3.3093    3.4522    3.5312    3.8104    3.8253    3.8592    3.9268    4.0068
    4.0380    4.1073    4.2313    4.3401    4.4259    4.4566    4.6174    4.6510    4.8243    5.0338
    5.2396    5.2795    5.3546    5.4703    5.6035    5.6273    5.7244    5.8204    6.1153    6.2473
    7.1608    7.1963    7.2126    7.2436    7.6318    7.7294    7.7984    7.9357    8.0137    8.0280
    8.0667    8.0957    8.1065    8.1450   11.9866   11.9911   12.0822   12.0867
  40  1  -14.3414  -14.2071  -14.0830  -14.0522  -13.9632  -13.9264  -13.8877  -13.8011  -13.6654  -13.6429
         -13.6376  -13.4846  -13.4838  -13.3513  -13.1409  -13.0998  -13.0775  -12.8067  -12.4906  -12.4498
  -12.4201  -12.3716  -12.3251  -12.0773  -11.6784  -11.6524  -11.5754  -11.4490  -11.4173  -11.4141
  -11.1073  -11.0242  -10.9908  -10.9301  -10.9248  -10.7866  -10.7561  -10.7114  -10.6294  -10.4102
  -10.3530  -10.3212  -10.2188  -10.1062   -9.9457   -9.6166   -8.6076   -8.5823   -8.5389   -8.5225
   -8.4139   -8.3712   -8.2125   -8.2032   -8.1914   -8.1500   -8.0998   -8.0211   -7.7110   -7.6760
   -7.6220   -7.5915   -7.4383   -7.3731   -7.3390   -7.3238   -7.2605   -7.2311   -7.1882   -7.1016
   -7.0781   -7.0606   -7.0115   -6.9739   -6.9639   -6.9584   -6.9089   -6.7719   -6.6739   -6.6515
   -6.5731   -6.5038   -6.3342   -6.3293   -6.3144   -6.2329   -6.0911   -6.0331   -5.8768   -5.8380
   -5.8173   -5.6850   -5.6843   -5.6312   -0.6871   -0.6736   -0.3950   -0.3820   -0.3518   -0.2719
   -0.0723   -0.0643   -0.0188    0.0095    0.0485    0.1258    0.1463    0.2198    0.2294    0.2403
    0.2474    0.4122    0.7481    0.7720    0.9263    1.0013    1.0091    1.1010    1.1299    1.1411
    1.2164    1.3328    1.3570    1.3759    1.4412    1.4594    1.5968    1.6871    1.6913    1.6990
    1.9419    1.9872    2.1453    2.2198    2.3487    2.5496    2.7324    2.7903    2.8080    2.8882
    2.9809    3.1408    3.3341    3.4590    3.5292    3.8017    3.8303    3.8658    3.9338    4.0146
    4.0506    4.1097    4.2365    4.3652    4.4328    4.4648    4.6226    4.6443    4.8444    5.0243
    5.2690    5.2936    5.3383    5.4709    5.6160    5.6410    5.7430    5.8188    6.1589    6.2279
    7.1873    7.1961    7.2131    7.2301    7.6435    7.7326    7.8011    7.9376    8.0233    8.0271
    8.0532    8.0973    8.1150    8.1351   12.0067   12.0113   12.1028   12.1073
  41  1  -14.3239  -14.1944  -14.0778  -14.0353  -13.9730  -13.9350  -13.8966  -13.7900  -13.6784  -13.6320
         -13.6276  -13.4921  -13.4879  -13.3558  -13.1416  -13.0858  -13.0773  -12.8143  -12.4856  -12.4496
  -12.4109  -12.3700  -12.3229  -12.0916  -11.6753  -11.6495  -11.5748  -11.4503  -11.4280  -11.4158
  -11.1054  -11.0274  -10.9867  -10.9292  -10.9192  -10.7932  -10.7649  -10.7247  -10.6190  -10.3916
  -10.3714  -10.3293  -10.2249  -10.1200   -9.9461   -9.6370   -8.6064   -8.5819   -8.5378   -8.5215
   -8.4121   -8.3721   -8.2084   -8.2055   -8.1916   -8.1501   -8.1006   -8.0211   -7.7032   -7.6819
   -7.6175   -7.5914   -7.4250   -7.3519   -7.3499   -7.3493   -7.2564   -7.2161   -7.1968   -7.1053
   -7.0825   -7.0652   -7.0096   -6.9841   -6.9669   -6.9643   -6.8993   -6.7821   -6.6737   -6.6529
   -6.5686   -6.5120   -6.3328   -6.3300   -6.3045   -6.2455   -6.0874   -6.0321   -5.8770   -5.8381
   -5.8166   -5.6929   -5.6764   -5.6405   -0.6730   -0.6607   -0.4039   -0.3767   -0.3660   -0.2808
   -0.0688   -0.0612   -0.0148    0.0143    0.0593    0.1236    0.1514    0.2180    0.2331    0.2334
    0.2376    0.3999    0.7499    0.7720    0.9285    1.0047    1.0077    1.0957    1.1364    1.1379
    1.2185    1.3287    1.3618    1.3759    1.4428    1.4619    1.5970    1.6813    1.6835    1.6990
    1.9401    1.9804    2.1498    2.2160    2.3597    2.5620    2.7279    2.7953    2.8092    2.8820
    2.9788    3.1364    3.3421    3.4623    3.5284    3.7982    3.8317    3.8681    3.9362    4.0171
    4.0550    4.1104    4.2382    4.3743    4.4351    4.4676    4.6243    4.6413    4.8520    5.0202
    5.2841    5.2983    5.3272    5.4714    5.6201    5.6456    5.7499    5.8178    6.1886    6.2063
    7.1961    7.2085    7.2132    7.2134    7.6476    7.7335    7.8021    7.9382    8.0229    8.0365
    8.0425    8.0980    8.1221    8.1275   12.0135   12.0181   12.1097   12.1142

siesta: Program's energy decomposition (eV):
siesta: Ebs     =     -1757.935762
siesta: Eions   =      8390.991026
siesta: Ena     =      2550.734564
siesta: Ekin    =      1969.086516
siesta: Enl     =       490.656650
siesta: Eso     =         0.000000
siesta: Edftu   =         0.000000
siesta: DEna    =       112.339340
siesta: DUscf   =         3.664094
siesta: DUext   =         0.000000
siesta: Exc     =     -1534.139306
siesta: eta*DQ  =         0.000000
siesta: Emadel  =         0.000000
siesta: Emeta   =         0.000000
siesta: Emolmec =         0.000000
siesta: Ekinion =         0.000000
siesta: Eharris =     -4798.649168
siesta: Etot    =     -4798.649167
siesta: FreeEng =     -4798.649167

siesta: Final energy (eV):
siesta:  Band Struct. =   -1757.935762
siesta:       Kinetic =    1969.086516
siesta:       Hartree =   40116.800988
siesta:       Edftu   =       0.000000
siesta:       Eso     =       0.000000
siesta:    Ext. field =       0.000000
siesta:   Exch.-corr. =   -1534.139306
siesta:  Ion-electron =  -81967.148697
siesta:       Ion-ion =   36616.751330
siesta:       Ekinion =       0.000000
siesta:         Total =   -4798.649167
siesta:         Fermi =      -3.751284

siesta: Atomic forces (eV/Ang):
siesta:      1    0.348909   -0.272980    0.990420
siesta:      2    0.332728   -0.222367   -0.996835
siesta:      3   -0.368109    0.011871   -0.013520
siesta:      4    0.485024   -0.096197    1.001274
siesta:      5   -0.504086    0.112519    1.001701
siesta:      6    0.561689   -0.011390   -1.012125
siesta:      7   -0.375614   -0.028600   -0.015024
siesta:      8    0.479875    0.081658    1.004186
siesta:      9   -0.635474   -0.016276    0.999404
siesta:     10    0.334566    0.225744   -0.991570
siesta:     11    0.348132    0.275210    0.994488
siesta:     12   -0.523310   -0.116401    0.999107
siesta:     13    0.329584   -0.219491   -1.007057
siesta:     14   -0.423382    0.078300   -1.013286
siesta:     15    0.421417    0.068937    1.007673
siesta:     16   -0.320447   -0.212067    0.995846
siesta:     17    0.505137   -0.104756   -1.017025
siesta:     18   -0.565578   -0.030599   -1.011952
siesta:     19    0.570805   -0.031874    1.008749
siesta:     20   -0.510488   -0.107394    1.010841
siesta:     21    0.544994   -0.017260   -1.010674
siesta:     22   -0.568141    0.005170   -1.014018
siesta:     23    0.562358    0.006198    1.004883
siesta:     24   -0.546512   -0.014275    1.002203
siesta:     25    0.495727    0.102044   -1.021222
siesta:     26   -0.423691   -0.050546   -1.015370
siesta:     27    0.418293   -0.043522    1.003863
siesta:     28   -0.503331    0.105449    1.010148
siesta:     29    0.328814    0.233802   -1.006598
siesta:     30   -0.338271    0.239004    0.994927
siesta:     31   -0.348248   -0.278241   -1.003528
siesta:     32    0.511051    0.110897   -1.003528
siesta:     33   -0.477503   -0.088094   -1.014732
siesta:     34    0.365217    0.008408    0.004955
siesta:     35   -0.335719   -0.223046    0.986145
siesta:     36    0.644576   -0.019033   -1.006524
siesta:     37   -0.469331    0.072164   -1.020467
siesta:     38    0.381889   -0.032308    0.004776
siesta:     39   -0.564677   -0.014788    1.001699
siesta:     40    0.524527   -0.117247   -1.006954
siesta:     41   -0.338193    0.285923   -1.010386
siesta:     42   -0.343260    0.221173    0.987443
siesta:     43   -0.411805   -0.585159    0.010977
siesta:     44   -0.400936   -0.597571   -0.010838
siesta:     45   -0.388214    0.006005   -0.251081
siesta:     46   -0.393330    0.005609    0.263658
siesta:     47   -0.389980   -0.005960   -0.251116
siesta:     48   -0.393557   -0.006609    0.263780
siesta:     49   -0.402689    0.607091   -0.011469
siesta:     50   -0.411997    0.593602    0.010658
siesta:     51   -0.420887   -0.587672   -0.009921
siesta:     52    0.422439   -0.590361    0.011221
siesta:     53   -0.423481    0.593553   -0.011462
siesta:     54    0.425088    0.594706    0.011446
siesta:     55    0.411496   -0.586061   -0.009927
siesta:     56    0.395038    0.005759   -0.261104
siesta:     57    0.389146    0.006072    0.250029
siesta:     58    0.403271   -0.601281    0.011191
siesta:     59    0.394380   -0.005683   -0.260332
siesta:     60    0.388614   -0.005843    0.249711
siesta:     61    0.411903    0.592971   -0.011289
siesta:     62    0.403579    0.608800    0.011849
siesta: ----------------------------------------
siesta:    Tot    0.020026   -0.082315   -0.191684

siesta: Stress tensor (static) (eV/Ang**3):
siesta:    -0.014767    0.000014   -0.001133
siesta:     0.000014   -0.018411    0.000001
siesta:    -0.001133    0.000001   -0.009709

siesta: Cell volume =       3522.258458 Ang**3

siesta: Pressure (static):
siesta:                Solid            Molecule  Units
siesta:           0.00015569         -0.00000448  Ry/Bohr**3
siesta:           0.01429524         -0.00041118  eV/Ang**3
siesta:          22.90374474         -0.65878757  kBar
(Free)E+ p_basis*V_orbitals  =       -4783.276743
(Free)Eharris+ p_basis*V_orbitals  =       -4783.276744

siesta: Electric dipole (a.u.)  =    0.000225    0.000671   -0.000000
siesta: Electric dipole (Debye) =    0.000573    0.001706   -0.000000

cite: Please see "sinw_2.bib" for an exhaustive BiBTeX file.
cite: Please clearly indicate Siesta version in published work: v4.1-b4-351
cite: This calculation has made use of the following articles
cite: which are encouraged to be cited in a published work.
        Primary SIESTA paper
          DOI: www.doi.org/10.1088/0953-8984/14/11/302

>> End of run:  22-JAN-2021  23:28:25
Job completed
