Siesta Version  : v4.1-b4-351
Architecture    : x86_64-linux-n-62-26-19
Compiler version: GNU Fortran (GCC) 9.3.0
Compiler flags  : mpifort -m64 -fPIC -O3 -march=native -ftree-vectorize -fexpensive-optimizatioons -funroll-loops -fprefetch-loop-arrays -fno-second-underscore  -flto
PP flags        : -I/dtu/sw/dcc/SL73/2020-aug/generic/build-tools/1.0/include -I/dtu/sw/dcc/SL773/2020-aug/generic/gcc/9.3.0/include -I/dtu/sw/dcc/SL73/2020-aug/generic/gcc/9.3.0/include -I/dtu/sw/dcc/SL73/2020-aug/XeonE5-2660v3/gnu/9.3.0/zlib/1.2.11/include -I/dtu/sw/dcc/SL73/2020-aug/generic/numactl/2.0.12/include -I/dtu/sw/dcc/SL73/2020-aug/XeonE5-2660v3/gnu/9.3.0/libxml2/2.9.10/include -I/dtu/sw/dcc/SL73/2020-aug/XeonE5-2660v3/gnu/9.3.0/hwloc/2.2.0/include -I/dtu/sw/dcc/SL73/2020-aug/XeonE5-2660v3/gnu/9.3.0/knem/1.1.4/include -I/dtu/sw/dcc/SL73/2020-aug/XeonE5-2660v3/gnu/9.3.0/ucx/1.8.1/include -I/dtu/sw/dcc/SL73/2020-aug/XeonE5-2660v3/gnu/9.3.0/openmpi/4.0.4/include -I/dtu/sw/dcc/SL73/2020-aug/XeonE5-2660v3/gnu/9.3.0/szip/2.1.1/include -I/dtu/sw/dcc/SL73/2020-aug/XeonE5-2660v3/gnu/9.3.0/hdf5/1.12.0/include -I/dtu/sw/dcc/SL73/2020-aug/XeonE5-2660v3/gnu/9.3.0/pnetcdf/1.12.1/include -I/dtu/sw/dcc/SL73/2020-aug/generic/gen-zlib/1.2.11/include -I/dtu/sw/dcc/SL73/2020-aug/generic/openssl/1.1.1/include -I/dtu/sw/dcc/SL73/2020-aug/generic/libssh2/1.8.2/include -I/dtu/sw/dcc/SL73/2020-aug/generic/curl/7.65.1/include -I/dtu/sw/dcc/SL73/2020-aug/XeonE5-2660v3/gnu/9.3.0/netcdf/4.7.4/include -I/dtu/sw/dcc/SL73/2020-aug/XeonE5-2660v3/gnu/9.3.0/flook/0.8.1/include -I/dtu/sw/dcc/SL73/2020-aug/XeonE5-2660v3/gnu/9.3.0/fftw/3.3.8/include -I/dtu/sw/dcc/SL73/2020-aug/XeonE5-2660v3/gnu/9.3.0/parmetis/4.0.3/include -I/dtu/sw/dcc/SL73/2020-aug/XeonE5-2660v3/gnu/9.3.0/scalapack/2.1.0/include -I/dtu/sw/dcc/SL73/2020-aug/XeonE5-2660v3/gnu/9.3.0/lapack/3.9.0/include -I/dtu/sw/dcc/SL73/2020-aug/XeonE5-2660v3/gnu/9.3.0/blis/0.7.0/include -I/dtu/sw/dcc/SL73/2020-aug/XeonE5-2660v3/gnu/9.3.0/scotch/6.0.9/include -I/dtu/sw/dcc/SL73/2020-aug/XeonE5-2660v3/gnu/9.3.0/mumps/5.3.3/include -I/dtu/sw/dcc/SL73/2020-aug/XeonE5-2660v3/gnu/9.3.0/elpa/2020.05.001/include -DSIESTA__ELPA -DMPI -DFC_HAVE_FLUSH -DFC_HAVE_ABORT -DCDF -DCDF4 -DSIESTA__FLOOK  -DNCDF -DNCDF_4 -DNCDF_PARALLEL -DTS_NOCHECKS -DSIESTA__METIS -DSIESTA__MUMPS -DSIESTA__MRRR -I/dtu/sw/dcc/SL73/2020-aug/XeonE5-2660v3/gnu/9.3.0/elpa/2020.05.001/include/elpa
Libraries       : libncdf.a libfdict.a -lnetcdff -lnetcdf -lpnetcdf -lhdf5_hl -lhdf5 -lz  -lzmuumps -lmumps_common -lesmumps -lscotch -lscotcherr -lpord -lparmetis -lmetis -lelpa -lscalapack -llapack -lblis  -L/dtu/sw/dcc/SL73/2020-aug/XeonE5-2660v3/gnu/9.3.0/flook/0.8.1/lib -Wl,-rpath=/dtu/sw/dcc/SL73/2020-aug/XeonE5-2660v3/gnu/9.3.0/flook/0.8.1/lib -lflookall -ldl  -flto -fuse-linker-plugin  -lmetis
PARALLEL version
NetCDF support
NetCDF-4 support
NetCDF-4 MPI-IO support
METIS ordering support
Lua support

* Running on 8 nodes in parallel
>> Start of run:  22-JAN-2021  23:27:48

                           ***********************       
                           *  WELCOME TO SIESTA  *       
                           ***********************       

reinit: Reading from ../sinw.fdf

reinit: -----------------------------------------------------------------------
reinit: System Name: Y.M. Niquet wire, 41 atoms
reinit: -----------------------------------------------------------------------
reinit: System Label: sinw
reinit: -----------------------------------------------------------------------

initatom: Reading input for the pseudopotentials and atomic orbitals ----------
Species number:   1 Atomic number:   14 Label: Si
Species number:   2 Atomic number:    1 Label: H

Ground state valence configuration:   3s02  3p02
Reading pseudopotential information in formatted form from Si.psf

Valence configuration for pseudopotential generation:
3s( 2.00) rc: 1.89
3p( 2.00) rc: 1.89
3d( 0.00) rc: 1.89
4f( 0.00) rc: 1.89
Ground state valence configuration:   1s01
Reading pseudopotential information in formatted form from H.psf

Valence configuration for pseudopotential generation:
1s( 1.00) rc: 1.25
2p( 0.00) rc: 1.25
3d( 0.00) rc: 1.25
4f( 0.00) rc: 1.25
For Si, standard SIESTA heuristics set lmxkb to 3
 (one more than the basis l, including polarization orbitals).
Use PS.lmax or PS.KBprojectors blocks to override.
For H, standard SIESTA heuristics set lmxkb to 2
 (one more than the basis l, including polarization orbitals).
Use PS.lmax or PS.KBprojectors blocks to override.

<basis_specs>
===============================================================================
Si                   Z=  14    Mass=  28.090        Charge= 0.17977+309
Lmxo=1 Lmxkb= 3    BasisType=split      Semic=F
L=0  Nsemic=0  Cnfigmx=3
          i=1  nzeta=2  polorb=0  (3s)
            splnorm:   0.15000    
               vcte:    0.0000    
               rinn:    0.0000    
               qcoe:    0.0000    
               qyuk:    0.0000    
               qwid:   0.10000E-01
                rcs:    0.0000      0.0000    
            lambdas:    1.0000      1.0000    
L=1  Nsemic=0  Cnfigmx=3
          i=1  nzeta=2  polorb=1  (3p)
            splnorm:   0.15000    
               vcte:    0.0000    
               rinn:    0.0000    
               qcoe:    0.0000    
               qyuk:    0.0000    
               qwid:   0.10000E-01
                rcs:    0.0000      0.0000    
            lambdas:    1.0000      1.0000    
-------------------------------------------------------------------------------
L=0  Nkbl=1  erefs: 0.17977+309
L=1  Nkbl=1  erefs: 0.17977+309
L=2  Nkbl=1  erefs: 0.17977+309
L=3  Nkbl=1  erefs: 0.17977+309
===============================================================================
</basis_specs>

atom: Called for Si                    (Z =  14)

read_vps: Pseudopotential generation method:
read_vps: ATM3      Troullier-Martins                       
Valence charge for ps generation:    4.00000

xc_check: Exchange-correlation functional:
xc_check: Ceperley-Alder
V l=0 = -2*Zval/r beyond r=  2.5494
V l=1 = -2*Zval/r beyond r=  2.5494
V l=2 = -2*Zval/r beyond r=  2.5494
V l=3 = -2*Zval/r beyond r=  2.5494
All V_l potentials equal beyond r=  1.8652
This should be close to max(r_c) in ps generation
All pots = -2*Zval/r beyond r=  2.5494
Using large-core scheme for Vlocal

atom: Estimated core radius    2.54944

atom: Including non-local core corrections could be a good idea
atom: Maximum radius for 4*pi*r*r*local-pseudopot. charge    2.85303
atom: Maximum radius for r*vlocal+2*Zval:    2.58151
GHOST: No ghost state for L =  0
GHOST: No ghost state for L =  1
GHOST: No ghost state for L =  2
GHOST: No ghost state for L =  3

KBgen: Kleinman-Bylander projectors: 
   l= 0   rc=  1.936440   el= -0.796617   Ekb=  4.661340   kbcos=  0.299756
   l= 1   rc=  1.936440   el= -0.307040   Ekb=  1.494238   kbcos=  0.301471
   l= 2   rc=  1.936440   el=  0.002313   Ekb= -2.808672   kbcos= -0.054903
   l= 3   rc=  1.936440   el=  0.003402   Ekb= -0.959059   kbcos= -0.005513

KBgen: Total number of  Kleinman-Bylander projectors:   16
atom: -------------------------------------------------------------------------

atom: SANKEY-TYPE ORBITALS:
atom: Selected multiple-zeta basis: split     

SPLIT: Orbitals with angular momentum L= 0

SPLIT: Basis orbitals for state 3s

SPLIT: PAO cut-off radius determined from an
SPLIT: energy shift=  0.007350 Ry

   izeta = 1
                 lambda =    1.000000
                     rc =    5.674097
                 energy =   -0.790139
                kinetic =    0.533579
    potential(screened) =   -1.323718
       potential(ionic) =   -3.776962

   izeta = 2
                 rmatch =    4.530823
              splitnorm =    0.150000
                 energy =   -0.698340
                kinetic =    0.836495
    potential(screened) =   -1.534835
       potential(ionic) =   -4.106738

SPLIT: Orbitals with angular momentum L= 1

SPLIT: Basis orbitals for state 3p

SPLIT: PAO cut-off radius determined from an
SPLIT: energy shift=  0.007350 Ry

   izeta = 1
                 lambda =    1.000000
                     rc =    7.105845
                 energy =   -0.299565
                kinetic =    0.824289
    potential(screened) =   -1.123854
       potential(ionic) =   -3.348521

   izeta = 2
                 rmatch =    5.264094
              splitnorm =    0.150000
                 energy =   -0.218814
                kinetic =    1.203060
    potential(screened) =   -1.421875
       potential(ionic) =   -3.849590

POLgen: Perturbative polarization orbital with L=  2

POLgen: Polarization orbital for state 3p

   izeta = 1
                     rc =    7.105845
                 energy =    0.366373
                kinetic =    1.162439
    potential(screened) =   -0.796066
       potential(ionic) =   -2.795335
atom: Total number of Sankey-type orbitals: 13

atm_pop: Valence configuration (for local Pseudopot. screening):
 3s( 2.00)                                                            
 3p( 2.00)                                                            
Vna: chval, zval:    4.00000   4.00000

Vna:  Cut-off radius for the neutral-atom potential:   7.105845

atom: _________________________________________________________________________

<basis_specs>
===============================================================================
H                    Z=   1    Mass=  1.0100        Charge= 0.17977+309
Lmxo=0 Lmxkb= 2    BasisType=split      Semic=F
L=0  Nsemic=0  Cnfigmx=1
          i=1  nzeta=2  polorb=1  (1s)
            splnorm:   0.15000    
               vcte:    0.0000    
               rinn:    0.0000    
               qcoe:    0.0000    
               qyuk:    0.0000    
               qwid:   0.10000E-01
                rcs:    0.0000      0.0000    
            lambdas:    1.0000      1.0000    
-------------------------------------------------------------------------------
L=0  Nkbl=1  erefs: 0.17977+309
L=1  Nkbl=1  erefs: 0.17977+309
L=2  Nkbl=1  erefs: 0.17977+309
===============================================================================
</basis_specs>

atom: Called for H                     (Z =   1)

read_vps: Pseudopotential generation method:
read_vps: ATM3      Troullier-Martins                       
Valence charge for ps generation:    1.00000

xc_check: Exchange-correlation functional:
xc_check: Ceperley-Alder
V l=0 = -2*Zval/r beyond r=  1.2343
V l=1 = -2*Zval/r beyond r=  1.2189
V l=2 = -2*Zval/r beyond r=  1.2189
All V_l potentials equal beyond r=  1.2343
This should be close to max(r_c) in ps generation
All pots = -2*Zval/r beyond r=  1.2343

VLOCAL1: 99.0% of the norm of Vloc inside     28.493 Ry
VLOCAL1: 99.9% of the norm of Vloc inside     64.935 Ry
atom: Maximum radius for 4*pi*r*r*local-pseudopot. charge    1.45251
atom: Maximum radius for r*vlocal+2*Zval:    1.21892
GHOST: No ghost state for L =  0
GHOST: No ghost state for L =  1
GHOST: No ghost state for L =  2

KBgen: Kleinman-Bylander projectors: 
   l= 0   rc=  1.364359   el= -0.467325   Ekb= -2.005361   kbcos= -0.336422
   l= 1   rc=  1.434438   el=  0.001430   Ekb= -0.501708   kbcos= -0.021697
   l= 2   rc=  1.470814   el=  0.002365   Ekb= -0.190555   kbcos= -0.002281

KBgen: Total number of  Kleinman-Bylander projectors:    9
atom: -------------------------------------------------------------------------

atom: SANKEY-TYPE ORBITALS:
atom: Selected multiple-zeta basis: split     

SPLIT: Orbitals with angular momentum L= 0

SPLIT: Basis orbitals for state 1s

SPLIT: PAO cut-off radius determined from an
SPLIT: energy shift=  0.007350 Ry

   izeta = 1
                 lambda =    1.000000
                     rc =    5.610042
                 energy =   -0.460727
                kinetic =    0.871089
    potential(screened) =   -1.331816
       potential(ionic) =   -1.862047

   izeta = 2
                 rmatch =    4.052721
              splitnorm =    0.150000
                 energy =   -0.373007
                kinetic =    1.378602
    potential(screened) =   -1.751608
       potential(ionic) =   -2.318078

POLgen: Perturbative polarization orbital with L=  1

POLgen: Polarization orbital for state 1s

   izeta = 1
                     rc =    5.610042
                 energy =    0.580858
                kinetic =    1.209010
    potential(screened) =   -0.628152
       potential(ionic) =   -1.094531
atom: Total number of Sankey-type orbitals:  5

atm_pop: Valence configuration (for local Pseudopot. screening):
 1s( 1.00)                                                            
Vna: chval, zval:    1.00000   1.00000

Vna:  Cut-off radius for the neutral-atom potential:   5.610042

atom: _________________________________________________________________________

prinput: Basis input ----------------------------------------------------------

PAO.BasisType split     

%block ChemicalSpeciesLabel
    1   14 Si                      # Species index, atomic number, species label
    2    1 H                       # Species index, atomic number, species label
%endblock ChemicalSpeciesLabel

%block PAO.Basis                 # Define Basis set
Si                    2                    # Species label, number of l-shells
 n=3   0   2                         # n, l, Nzeta 
   5.674      4.531   
   1.000      1.000   
 n=3   1   2 P   1                   # n, l, Nzeta, Polarization, NzetaPol
   7.106      5.264   
   1.000      1.000   
H                     1                    # Species label, number of l-shells
 n=1   0   2 P   1                   # n, l, Nzeta, Polarization, NzetaPol
   5.610      4.053   
   1.000      1.000   
%endblock PAO.Basis

prinput: ----------------------------------------------------------------------

Dumping basis to NetCDF file Si.ion.nc
Dumping basis to NetCDF file H.ion.nc
coor:   Atomic-coordinates input format  =     Cartesian coordinates
coor:                                          (in Angstroms)

siesta: Atomic coordinates (Bohr) and species
siesta:      3.77945   0.00000   0.00000  1        1
siesta:      7.40735   0.00000   2.56530  1        2
siesta:      3.77945  -3.62790  -2.56530  1        3
siesta:      3.77945   3.62790  -2.56530  1        4
siesta:      3.77945   7.25580   0.00000  1        5
siesta:      7.40735   3.62790   5.13061  1        6
siesta:      7.40735  -3.62790   5.13061  1        7
siesta:      3.77945  -7.25580   0.00000  1        8
siesta:      7.40735  -3.62790  -5.13061  1        9
siesta:      7.40735   3.62790  -5.13061  1       10
siesta:      7.40735   0.00000  -7.69591  1       11
siesta:      3.77945   3.62790   7.69591  1       12
siesta:      3.77945  -3.62790   7.69591  1       13
siesta:      7.40735  -7.25580   2.56530  1       14
siesta:      7.40735   7.25580   2.56530  1       15
siesta:      3.77945  -1.23632   9.38703  2       16
siesta:      5.01577   0.00000  -9.38703  2       17
siesta:      3.77945   1.23632   9.38703  2       18
siesta:      3.77945  -9.69373  -1.72383  2       19
siesta:      7.40735  -6.06583  -6.85442  2       20
siesta:      3.77945   9.69373  -1.72383  2       21
siesta:      7.40735   6.06583  -6.85442  2       22
siesta:      9.79899   0.00000  -9.38703  2       23
siesta:      7.40735   9.69373   4.28911  2       24
siesta:      7.40735  -9.69373   4.28911  2       25
siesta:      3.77945  -6.01954   9.38703  2       26
siesta:      3.77945   6.01954   9.38703  2       27

siesta: System type = chain     

initatomlists: Number of atoms, orbitals, and projectors:     27   255   348

coxmol: Writing XMOL coordinates into file sinw.xyz                                                            

siesta: ******************** Simulation parameters ****************************
siesta:
siesta: The following are some of the parameters of the simulation.
siesta: A complete list of the parameters used, including default values,
siesta: can be found in file out.fdf
siesta:
redata: Spin configuration                          = none
redata: Number of spin components                   = 1
redata: Time-Reversal Symmetry                      = T
redata: Spin spiral                                 = F
redata: Long output                                 =   T
redata: Number of Atomic Species                    =        2
redata: Charge density info will appear in .RHO file
redata: Write Mulliken Pop.                         = Atomic and Orbital charges
redata: Matel table size (NRTAB)                    =     1024
redata: Mesh Cutoff                                 =   200.0000 Ry
redata: Net charge of the system                    =     0.0000 |e|
redata: Min. number of SCF Iter                     =        0
redata: Max. number of SCF Iter                     =     1000
redata: SCF convergence failure will abort job
redata: SCF mix quantity                            = Hamiltonian
redata: Mix DM or H after convergence               =   F
redata: Recompute H after scf cycle                 =   F
redata: Mix DM in first SCF step                    =   T
redata: Write Pulay info on disk                    =   F
redata: New DM Occupancy tolerance                  = 0.000000000001
redata: Kick with linear mixing every               =       15 iterations
redata: DM Mixing Weight for Kicks                  =     0.5000
redata: Require Harris convergence for SCF          =   F
redata: Harris energy tolerance for SCF             =     0.000100 eV
redata: Require DM convergence for SCF              =   T
redata: DM tolerance for SCF                        =     0.000100
redata: Require EDM convergence for SCF             =   F
redata: EDM tolerance for SCF                       =     0.001000 eV
redata: Require H convergence for SCF               =   T
redata: Hamiltonian tolerance for SCF               =     0.001000 eV
redata: Require (free) Energy convergence for SCF   =   F
redata: (free) Energy tolerance for SCF             =     0.000100 eV
redata: Using Saved Data (generic)                  =   T
redata: Use continuation files for DM               =   T
redata: Neglect nonoverlap interactions             =   F
redata: Method of Calculation                       = Diagonalization
redata: Electronic Temperature                      =   299.9869 K
redata: Fix the spin of the system                  =   F
redata: Dynamics option                             = Single-point calculation
mix.SCF: Pulay mixing                            = Pulay
mix.SCF:    Variant                              = stable
mix.SCF:    History steps                        = 3
mix.SCF:    Linear mixing weight                 =     0.250000
mix.SCF:    Mixing weight                        =     0.250000
mix.SCF:    SVD condition                        = 0.1000E-07
mix.SCF:    Restart steps                        = 14
mix.SCF:    Restart save steps                   = 1
mix.SCF:    Number of mixing iterations          = 14
mix.SCF:    Following mixer                      = Linear-Kick
mix.SCF: Linear mixing                           = Linear-Kick
mix.SCF:    Mixing weight                        =     0.500000
mix.SCF:    Number of mixing iterations          = 1
mix.SCF:    Following mixer                      = Pulay
redata: Save all siesta data in one NC              =   F
redata: ***********************************************************************

%block SCF.Mixers
  Pulay
  Linear-Kick
%endblock SCF.Mixers

%block SCF.Mixer.Pulay
  # Mixing method
  method pulay
  variant stable

  # Mixing options
  weight 0.2500
  weight.linear 0.2500
  history 3
  restart 14
  restart.save 1

  # Continuation options
  iterations 14
  next Linear-Kick
%endblock SCF.Mixer.Pulay

%block SCF.Mixer.Linear-Kick
  # Mixing method
  method linear

  # Mixing options
  weight 0.5000

  # Continuation options
  iterations 1
  next Pulay
%endblock SCF.Mixer.Linear-Kick

DM_history_depth set to one: no extrapolation allowed by default for geometry relaxation
Size of DM history Fstack: 1
Total number of electrons:    72.000000
Total ionic charge:    72.000000

* ProcessorY, Blocksize:    2  24


* Orbital distribution balance (max,min):    48    24

 Kpoints in:            4 . Kpoints trimmed:            4

siesta: k-point coordinates (Bohr**-1) and weights:
siesta:    1    0.000000    0.000000    0.005412       0.250000
siesta:    2    0.000000    0.000000    0.016237       0.250000
siesta:    3    0.000000    0.000000    0.027061       0.250000
siesta:    4    0.000000    0.000000    0.037886       0.250000

siesta: k-grid: Number of k-points =     4
siesta: k-grid: Cutoff (effective) =     1.920 Ang
siesta: k-grid: Supercell and displacements
siesta: k-grid:    1   0   0      0.000
siesta: k-grid:    0   1   0      0.000
siesta: k-grid:    0   0   8      0.500

diag: Algorithm                                     = D&C
diag: Parallel over k                               =   F
diag: Use parallel 2D distribution                  =   T
diag: Parallel block-size                           = 24
diag: Parallel distribution                         =     2 x     4
diag: Used triangular part                          = Lower
diag: Absolute tolerance                            =  0.100E-15
diag: Orthogonalization factor                      =  0.100E-05
diag: Memory factor                                 =  1.0000
Using LatticeConstant from fdf file for BandLinesScale:    7.255776 Bohr
Beware any cell changes by the end of the run
Using LatticeConstant from fdf file for BandLinesScale:    7.255776 Bohr
Beware any cell changes by the end of the run

superc: Internal auxiliary supercell:     5 x     1 x     1  =       5
superc: Number of atoms, orbitals, and projectors:    135   1275   1740


ts: **************************************************************
ts: Save H and S matrices                           =    F
ts: Save DM and EDM matrices                        =    F
ts: Only save the overlap matrix S                  =    F
ts: **************************************************************

************************ Begin: TS CHECKS AND WARNINGS ************************
************************ End: TS CHECKS AND WARNINGS **************************


                     ====================================
                        Single-point calculation
                     ====================================

outcoor: Atomic coordinates (Ang):                          
    2.00000000    0.00000000    0.00000000   1       1  Si
    3.91980000    0.00000000    1.35750000   1       2  Si
    2.00000000   -1.91980000   -1.35750000   1       3  Si
    2.00000000    1.91980000   -1.35750000   1       4  Si
    2.00000000    3.83960000    0.00000000   1       5  Si
    3.91980000    1.91980000    2.71500000   1       6  Si
    3.91980000   -1.91980000    2.71500000   1       7  Si
    2.00000000   -3.83960000    0.00000000   1       8  Si
    3.91980000   -1.91980000   -2.71500000   1       9  Si
    3.91980000    1.91980000   -2.71500000   1      10  Si
    3.91980000    0.00000000   -4.07250000   1      11  Si
    2.00000000    1.91980000    4.07250000   1      12  Si
    2.00000000   -1.91980000    4.07250000   1      13  Si
    3.91980000   -3.83960000    1.35750000   1      14  Si
    3.91980000    3.83960000    1.35750000   1      15  Si
    2.00000000   -0.65423000    4.96740000   2      16  H
    2.65423000    0.00000000   -4.96740000   2      17  H
    2.00000000    0.65423000    4.96740000   2      18  H
    2.00000000   -5.12970000   -0.91221000   2      19  H
    3.91980000   -3.20990000   -3.62720000   2      20  H
    2.00000000    5.12970000   -0.91221000   2      21  H
    3.91980000    3.20990000   -3.62720000   2      22  H
    5.18540000    0.00000000   -4.96740000   2      23  H
    3.91980000    5.12970000    2.26970000   2      24  H
    3.91980000   -5.12970000    2.26970000   2      25  H
    2.00000000   -3.18540000    4.96740000   2      26  H
    2.00000000    3.18540000    4.96740000   2      27  H

superc: Internal auxiliary supercell:     5 x     1 x     1  =       5
superc: Number of atoms, orbitals, and projectors:    135   1275   1740

outcell: Unit cell vectors (Ang):
        3.839590    0.000000    0.000000
        0.000000   38.395900    0.000000
        0.000000    0.000000   38.395900

outcell: Cell vector modules (Ang)   :    3.839590   38.395900   38.395900
outcell: Cell angles (23,13,12) (deg):     90.0000     90.0000     90.0000
outcell: Cell volume (Ang**3)        :   5660.4969
<dSpData1D:S at geom step 0
  <sparsity:sparsity for geom step 0
    nrows_g=255 nrows=48 sparsity=.4449 nnzs=28931, refcount: 7>
  <dData1D:(new from dSpData1D) n=28931, refcount: 1>
refcount: 1>
new_DM -- step:     1
Initializing Density Matrix...

Attempting to read DM from file... Failed...
DM filled with atomic data:
<dSpData2D:DM initialized from atoms
  <sparsity:sparsity for geom step 0
    nrows_g=255 nrows=48 sparsity=.4449 nnzs=28931, refcount: 8>
  <dData2D:DM n=28931 m=1, refcount: 1>
refcount: 1>
No. of atoms with KB's overlaping orbs in proc 0. Max # of overlaps:      57     269
New grid distribution:   1
           1       1:   18    1:   90    1:   45
           2       1:   18    1:   90   46:   90
           3       1:   18    1:   90   91:  135
           4       1:   18    1:   90  136:  180
           5       1:   18   91:  180    1:   45
           6       1:   18   91:  180   46:   90
           7       1:   18   91:  180   91:  135
           8       1:   18   91:  180  136:  180

InitMesh: MESH =    36 x   360 x   360 =     4665600
InitMesh: (bp) =    18 x   180 x   180 =      583200
InitMesh: Mesh cutoff (required, used) =   200.000   242.961 Ry
ExtMesh (bp) on 0 =    90 x   162 x   117 =     1705860
New grid distribution:   2
           1       1:   18   30:  180    1:    9
           2       1:   18    1:   26   22:  170
           3       1:   18    1:   29    1:    9
           4       1:   18   27:  180  171:  180
           5       1:   18   30:  180   10:   21
           6       1:   18   27:  180   22:  170
           7       1:   18    1:   29   10:   21
           8       1:   18    1:   26  171:  180
New grid distribution:   3
           1       1:   18   38:  180    1:   15
           2       1:   18    1:   62   34:  165
           3       1:   18    1:   37   16:   33
           4       1:   18    1:   62  166:  180
           5       1:   18   38:  180   16:   33
           6       1:   18   63:  180   34:  165
           7       1:   18    1:   37    1:   15
           8       1:   18   63:  180  166:  180
Setting up quadratic distribution...
ExtMesh (bp) on 0 =    90 x   223 x    81 =     1625670
PhiOnMesh: Number of (b)points on node 0 =                24462
PhiOnMesh: nlist on node 0 =               496441

stepf: Fermi-Dirac step function

siesta: Program's energy decomposition (eV):
siesta: Ebs     =      -744.886290
siesta: Eions   =      3092.503786
siesta: Ena     =       950.307489
siesta: Ekin    =       815.148068
siesta: Enl     =       152.519110
siesta: Eso     =         0.000000
siesta: Edftu   =         0.000000
siesta: DEna    =       -16.616734
siesta: DUscf   =        11.974351
siesta: DUext   =         0.000000
siesta: Exc     =      -597.093095
siesta: eta*DQ  =         0.000000
siesta: Emadel  =         0.000000
siesta: Emeta   =         0.000000
siesta: Emolmec =         0.000000
siesta: Ekinion =         0.000000
siesta: Eharris =     -1756.151965
siesta: Etot    =     -1776.264597
siesta: FreeEng =     -1776.264597

        iscf     Eharris(eV)        E_KS(eV)     FreeEng(eV)     dDmax    Ef(eV) dHmax(eV)
   scf:    1    -1756.151965    -1776.264597    -1776.264597  1.842084 -5.166086  4.233351
timer: Routine,Calls,Time,% = IterSCF        1       2.103  33.89
   scf:    2    -1777.784077    -1777.457522    -1777.457522  0.070697 -5.229304  2.338908
   scf:    3    -1777.766049    -1777.622393    -1777.622393  0.014762 -5.019024  1.671570
   scf:    4    -1778.077753    -1777.886518    -1777.886518  0.058811 -4.497293  0.369005
   scf:    5    -1777.900347    -1777.895069    -1777.895069  0.012294 -4.358834  0.141386
   scf:    6    -1777.898436    -1777.897178    -1777.897178  0.003702 -4.380399  0.032446
   scf:    7    -1777.897488    -1777.897347    -1777.897347  0.001093 -4.374344  0.008887
   scf:    8    -1777.897417    -1777.897384    -1777.897384  0.000448 -4.374494  0.005171
   scf:    9    -1777.897424    -1777.897405    -1777.897405  0.000541 -4.374190  0.001401
   scf:   10    -1777.897409    -1777.897407    -1777.897407  0.000109 -4.374239  0.000907
   scf:   11    -1777.897410    -1777.897409    -1777.897409  0.000165 -4.374257  0.000384
   scf:   12    -1777.897409    -1777.897409    -1777.897409  0.000033 -4.374297  0.000216

SCF Convergence by DM+H criterion
max |DM_out - DM_in|         :     0.0000329060
max |H_out - H_in|      (eV) :     0.0002164569
SCF cycle converged after 12 iterations

Using DM_out to compute the final energy and forces
No. of atoms with KB's overlaping orbs in proc 0. Max # of overlaps:      57     269

siesta: E_KS(eV) =            -1777.8974

siesta: E_KS - E_eggbox =     -1777.8974

siesta: Atomic forces (eV/Ang):
     1   -0.004760   -0.000000    0.179476
     2   -0.006757    0.000000   -0.204561
     3   -0.003280   -0.081551   -0.386912
     4   -0.003280    0.081551   -0.386912
     5   -0.002398    0.311913    0.221164
     6   -0.007810   -0.020424    0.440940
     7   -0.007810    0.020424    0.440940
     8   -0.002398   -0.311913    0.221164
     9   -0.002847   -0.281119   -0.223390
    10   -0.002847    0.281119   -0.223390
    11    0.003626   -0.000000   -1.408075
    12   -0.003311    0.520642   -0.257504
    13   -0.003311   -0.520642   -0.257504
    14   -0.004323   -0.360520   -0.209029
    15   -0.004323    0.360520   -0.209029
    16    0.000300   -0.842094    0.184183
    17    2.708172    0.000000    0.739193
    18    0.000300    0.842094    0.184183
    19    0.001629    0.400302    0.030571
    20    0.001736    0.340607    0.122705
    21    0.001629   -0.400302    0.030571
    22    0.001736   -0.340607    0.122705
    23   -2.705836    0.000000    0.737304
    24    0.001390   -0.395466   -0.024158
    25    0.001390    0.395466   -0.024158
    26    0.000678    0.029361    0.071170
    27    0.000678   -0.029361    0.071170
----------------------------------------
   Tot   -0.042027    0.000000   -0.017181
----------------------------------------
   Max    2.708172
   Res    0.526741    sqrt( Sum f_i^2 / 3N )
----------------------------------------
   Max    2.708172    constrained

Stress tensor Voigt[x,y,z,yz,xz,xy] (kbar):       -8.86        0.28       -0.47        0.00        0.00        0.00
(Free)E + p*V (eV/cell)    -1767.2538
Target enthalpy (eV/cell)    -1777.8974

mulliken: Atomic and Orbital Populations:

Species: Si                  
Atom  Qatom  Qorb
               3s      3s      3py     3pz     3px     3py     3pz     3px     
               3Pdxy   3Pdyz   3Pdz2   3Pdxz   3Pdx2-y2
   1  4.019   0.553   0.555   0.307   0.328   0.230   0.483   0.435   0.641
              0.036   0.150   0.063   0.100   0.138
   2  4.026   0.561   0.551   0.317   0.329   0.249   0.477   0.430   0.624
              0.037   0.150   0.064   0.098   0.138
   3  3.904   0.496   0.584   0.265   0.283   0.175   0.502   0.447   0.710
              0.033   0.128   0.055   0.097   0.128
   4  3.904   0.496   0.584   0.265   0.283   0.175   0.502   0.447   0.710
              0.033   0.128   0.055   0.097   0.128
   5  3.807   0.419   0.608   0.272   0.374   0.316   0.475   0.378   0.568
              0.017   0.134   0.043   0.084   0.119
   6  3.856   0.470   0.601   0.238   0.277   0.145   0.513   0.448   0.740
              0.033   0.117   0.052   0.100   0.124
   7  3.856   0.470   0.601   0.238   0.277   0.145   0.513   0.448   0.740
              0.033   0.117   0.052   0.100   0.124
   8  3.807   0.419   0.608   0.272   0.374   0.316   0.475   0.378   0.568
              0.017   0.134   0.043   0.084   0.119
   9  3.809   0.423   0.601   0.198   0.445   0.371   0.542   0.318   0.503
              0.019   0.148   0.045   0.085   0.111
  10  3.809   0.423   0.601   0.198   0.445   0.371   0.542   0.318   0.503
              0.019   0.148   0.045   0.085   0.111
  11  3.781   0.303   0.615   0.591   0.533   0.409   0.273   0.189   0.583
              0.028   0.069   0.022   0.084   0.081
  12  3.729   0.390   0.608   0.176   0.597   0.471   0.525   0.198   0.414
              0.002   0.143   0.036   0.068   0.103
  13  3.729   0.390   0.608   0.176   0.597   0.471   0.525   0.198   0.414
              0.002   0.143   0.036   0.068   0.103
  14  3.802   0.416   0.610   0.271   0.371   0.321   0.474   0.379   0.563
              0.017   0.134   0.043   0.083   0.119
  15  3.802   0.416   0.610   0.271   0.371   0.321   0.474   0.379   0.563
              0.017   0.134   0.043   0.083   0.119

Species: H                   
Atom  Qatom  Qorb
               1s      1s      2Ppy    2Ppz    2Ppx    
  16  1.158   0.516   0.553   0.050   0.024   0.015
  17  1.145   0.444   0.619   0.020   0.024   0.038
  18  1.158   0.516   0.553   0.050   0.024   0.015
  19  1.220   0.910   0.248   0.028   0.020   0.014
  20  1.219   0.897   0.258   0.027   0.023   0.014
  21  1.220   0.910   0.248   0.028   0.020   0.014
  22  1.219   0.897   0.258   0.027   0.023   0.014
  23  1.144   0.441   0.620   0.020   0.024   0.038
  24  1.220   0.909   0.249   0.028   0.020   0.014
  25  1.220   0.909   0.249   0.028   0.020   0.014
  26  1.219   0.875   0.286   0.024   0.022   0.013
  27  1.219   0.875   0.286   0.024   0.022   0.013

mulliken: Qtot =       72.000

coxmol: Writing XMOL coordinates into file sinw.xyz                                                            
Computing bands...

siesta: Band k vectors (Bohr**-1):
  ik            k
   1     0.000000     0.000000     0.000000
   2     0.021649     0.000000     0.000000
   3     0.043298     0.000000     0.000000
   4     0.064947     0.000000     0.000000
   5     0.086596     0.000000     0.000000
   6     0.108245     0.000000     0.000000
   7     0.129893     0.000000     0.000000
   8     0.151542     0.000000     0.000000
   9     0.173191     0.000000     0.000000
  10     0.194840     0.000000     0.000000
  11     0.216489     0.000000     0.000000
  12     0.238138     0.000000     0.000000
  13     0.259787     0.000000     0.000000
  14     0.281436     0.000000     0.000000
  15     0.303085     0.000000     0.000000
  16     0.324734     0.000000     0.000000
  17     0.346383     0.000000     0.000000
  18     0.368031     0.000000     0.000000
  19     0.389680     0.000000     0.000000
  20     0.411329     0.000000     0.000000
  21     0.432978     0.000000     0.000000

siesta: Band energies (eV):
  ik is       eps
   1  1  -16.2095  -15.5086  -15.4413  -14.7212  -14.6700  -14.4292  -13.9827  -13.3099  -11.9855  -11.5962
         -11.3944  -11.2334  -10.6562  -10.1849   -9.8988   -9.3445   -8.7451   -8.7103   -8.4931   -8.1075
   -7.9316   -7.6982   -7.2763   -7.1798   -6.8646   -6.5672   -6.5609   -6.4884   -6.2099   -6.0906
   -6.0468   -5.9820   -5.9704   -5.7606   -5.4076   -5.0632   -3.6734   -3.1671   -2.9555   -2.7547
   -2.6713   -2.5448   -2.4303   -2.1102   -1.9791   -1.7411   -1.7298   -1.2631   -1.2193   -1.1904
   -0.7280   -0.6917   -0.6393   -0.4666   -0.3778   -0.3680   -0.3125   -0.0650    0.2355    0.2529
    0.3392    1.0248    1.2049    1.2133    1.2955    1.7528    1.8167    1.9195    2.1036    2.3721
    2.4103    2.4153    2.5243    2.8215    3.0117    3.1357    3.2738    3.3681    3.4835    3.6244
    3.9548    4.0931    4.4068    4.4293    4.4667    4.7146    4.7177    4.8101    4.9495    4.9683
    5.0522    5.5389    5.5957    5.8082    6.1453    6.2002    6.3091    6.4062    6.4846    6.6193
    6.9790    7.0616    7.1007    7.1652    7.2857    7.4499    7.8890    8.2127    8.3425    8.3512
    8.5324    8.7484    8.9227    8.9610    8.9707    9.0443    9.4984    9.5578    9.7044    9.8509
   10.0034   10.0909   10.2322   10.2824   10.3350   10.8245   10.8924   11.0870   11.2435   11.2751
   11.4145   11.4589   11.9905   12.1590   12.2218   12.5147   12.6348   12.9047   13.0162   13.1581
   13.4536   13.5434   13.6117   14.0473   14.1744   14.4002   14.7493   14.8323   14.9623   15.0696
   15.3220   15.7055   15.7879   15.7903   15.8147   16.5148   16.6346   16.7548   16.9185   17.1400
   17.2833   17.5739   17.7092   18.0136   18.4524   18.5865   18.7343   18.7685   18.8998   18.9065
   19.4632   19.6639   19.8046   20.2168   20.2328   20.2558   20.4392   20.7470   20.9782   20.9896
   21.0242   21.2057   21.5500   21.6397   22.0385   22.1068   22.3107   22.3599   22.8159   22.9158
   23.0763   23.1134   23.3469   23.6613   23.7068   23.8488   24.3888   25.4068   25.4292   25.6118
   26.0516   26.0777   26.0977   26.3716   27.3937   27.9637   28.6925   28.9028   29.6173   29.6772
   30.0233   30.1538   30.3443   31.1056   31.2504   31.4365   31.5879   32.4645   32.5337   32.9526
   33.3191   33.7826   33.9331   34.6224   35.4847   35.5789   35.7455   35.9234   36.1976   36.5977
   36.8411   37.5724   37.7690   37.8763   37.9260   38.6138   40.1221   40.6564   41.0097   42.4775
   42.7429   43.4928   44.1252   44.6052   45.6962   46.6871   50.7485   51.5424   52.3433   53.7599
   57.9646   58.6885   63.5787   68.6922   69.8452
   2  1  -16.2049  -15.5033  -15.4362  -14.7160  -14.6646  -14.4247  -13.9775  -13.3059  -11.9850  -11.5972
         -11.3930  -11.2316  -10.6563  -10.1848   -9.8979   -9.3421   -8.7471   -8.7092   -8.4964   -8.1056
   -7.9297   -7.6965   -7.3091   -7.1884   -6.8881   -6.6710   -6.5054   -6.4997   -6.2103   -6.1118
   -6.0801   -6.0149   -6.0055   -5.7553   -5.4511   -5.1114   -3.6201   -3.1299   -2.9018   -2.7070
   -2.6192   -2.5248   -2.3891   -2.0568   -1.9795   -1.7290   -1.7166   -1.2527   -1.2216   -1.2156
   -0.7907   -0.6598   -0.6314   -0.5595   -0.4084   -0.3624   -0.3016    0.0213    0.1802    0.2967
    0.3802    1.0108    1.1381    1.1723    1.3001    1.6958    1.8467    1.9556    2.1081    2.2859
    2.3597    2.4487    2.5778    2.8539    2.9640    3.0527    3.1554    3.4188    3.5180    3.7692
    3.9713    4.0296    4.4057    4.4200    4.4974    4.6271    4.7090    4.8167    4.9321    4.9654
    5.1944    5.4615    5.5396    5.8347    6.1361    6.2953    6.3153    6.4340    6.4444    6.6144
    6.7607    6.9747    7.2176    7.3238    7.3825    7.4659    7.8886    8.2035    8.3410    8.3786
    8.5890    8.7527    8.9265    8.9714    8.9791    9.0795    9.3729    9.7030    9.7079    9.8526
    9.9509   10.1073   10.2523   10.3033   10.3158   10.8447   10.8896   11.0611   11.2580   11.2686
   11.4300   11.4568   11.9673   12.1459   12.2596   12.5070   12.5808   12.8908   13.0476   13.1897
   13.4276   13.5075   13.6619   14.1011   14.1809   14.3764   14.5869   14.9096   14.9825   15.1870
   15.3506   15.5508   15.7172   15.9422   15.9852   16.5395   16.6186   16.6985   16.8623   17.1022
   17.3221   17.5206   17.7804   17.9903   18.4323   18.4755   18.7397   18.8563   18.8688   18.9138
   19.4328   19.6252   19.7915   20.1924   20.2182   20.2259   20.4467   20.7172   20.8117   20.9741
   21.0520   21.2597   21.4359   21.8165   21.8466   22.2147   22.3246   22.3889   22.7522   22.9953
   23.0685   23.1391   23.3311   23.6134   23.6749   23.9471   24.3803   25.3832   25.4440   25.6011
   25.9193   26.0079   26.2492   26.5107   27.4034   27.9228   28.6843   28.7025   29.5440   29.6397
   29.9683   30.1526   30.4182   31.1261   31.4480   31.4945   31.6441   32.0838   32.5290   33.2903
   33.5007   33.9685   34.1008   34.6814   35.1290   35.8883   35.8959   36.0620   36.0779   36.8690
   36.9581   37.6552   37.7631   37.8892   38.1402   38.8088   40.1700   40.6987   41.0685   42.3973
   42.6569   43.5587   44.2197   44.5227   45.5774   46.5958   50.6232   50.7343   53.0113   53.7962
   56.8176   59.3546   63.2552   68.7228   69.8070
   3  1  -16.1909  -15.4877  -15.4209  -14.7003  -14.6486  -14.4111  -13.9618  -13.2940  -11.9835  -11.6004
         -11.3889  -11.2264  -10.6568  -10.1845   -9.8954   -9.3352   -8.7537   -8.7062   -8.5074   -8.1003
   -7.9240   -7.6913   -7.4101   -7.2021   -6.9570   -6.8214   -6.5636   -6.4709   -6.2156   -6.1968
   -6.1545   -6.1389   -6.0420   -5.7522   -5.5718   -5.2439   -3.4675   -3.0319   -2.7475   -2.5786
   -2.4738   -2.4614   -2.2761   -1.9829   -1.9160   -1.7183   -1.6427   -1.2825   -1.2300   -1.2201
   -0.8756   -0.7389   -0.6838   -0.6034   -0.4629   -0.3205   -0.2820    0.0515    0.1813    0.3981
    0.4749    0.9504    1.0038    1.0392    1.3136    1.5978    1.8826    2.0063    2.0691    2.1262
    2.3703    2.4552    2.5695    2.8781    2.8984    2.9478    3.1545    3.3041    3.6227    3.7830
    4.0851    4.1118    4.2898    4.3984    4.5017    4.5312    4.6610    4.8780    4.9264    5.0282
    5.2226    5.4233    5.5353    5.8800    6.1668    6.2455    6.3050    6.3711    6.4769    6.6040
    6.6651    6.9430    7.3563    7.3646    7.5922    7.5999    7.8996    8.1853    8.3457    8.4988
    8.6994    8.7775    8.9355    9.0022    9.0089    9.1649    9.2823    9.6978    9.8022    9.8762
    9.8925   10.1497   10.2694   10.3032   10.3619   10.8844   10.8922   10.9896   11.2370   11.2943
   11.4625   11.5112   11.9114   12.1053   12.3209   12.4895   12.5312   12.8767   13.1151   13.2604
   13.3606   13.4396   13.7752   14.1554   14.2033   14.3962   14.4070   14.8821   15.1412   15.2419
   15.4413   15.5363   15.6366   16.1172   16.2290   16.4866   16.5783   16.6091   16.8215   17.0178
   17.3645   17.4167   17.8919   17.9258   18.2913   18.4558   18.7470   18.7622   18.9275   18.9593
   19.3429   19.5470   19.7405   20.0763   20.1011   20.1823   20.4509   20.6082   20.6572   20.8680
   20.9947   21.3660   21.3917   21.6570   22.0198   22.2279   22.2614   22.5606   22.6619   23.0426
   23.1022   23.2113   23.2708   23.5874   23.6008   24.1232   24.3564   25.3161   25.4772   25.5625
   25.8081   25.9121   26.4050   26.7660   27.4298   27.7800   28.4045   28.6996   29.2773   29.3281
   30.0463   30.3361   30.3554   31.2660   31.4622   31.5569   31.8463   32.1232   32.6780   33.6430
   33.8590   34.3052   34.3225   34.9423   34.9673   35.7820   35.9398   36.2753   36.4791   37.3100
   37.4081   37.8816   37.9245   38.0931   38.2963   39.5179   40.5445   40.8965   41.2925   42.1476
   42.5612   43.7031   44.2407   44.4758   45.3322   46.3398   49.4862   50.6704   53.0578   53.8937
   55.5900   59.6575   62.3156   68.8170   69.7179
   4  1  -16.1669  -15.4615  -15.3955  -14.6743  -14.6220  -14.3885  -13.9356  -13.2746  -11.9812  -11.6064
         -11.3827  -11.2181  -10.6582  -10.1847   -9.8920   -9.3240   -8.7659   -8.7020   -8.5283   -8.0921
   -7.9147   -7.6826   -7.5618   -7.2189   -7.0616   -7.0082   -6.6776   -6.4729   -6.3594   -6.3220
   -6.2257   -6.2132   -6.0692   -5.7699   -5.7448   -5.4298   -3.2337   -2.9094   -2.5085   -2.4132
   -2.3413   -2.2661   -2.1178   -1.9888   -1.8095   -1.6029   -1.5218   -1.3701   -1.2459   -1.1618
   -0.9477   -0.9231   -0.7905   -0.5584   -0.4754   -0.2637   -0.2546   -0.1089    0.3426    0.5094
    0.6085    0.7850    0.8377    0.9214    1.3356    1.4615    1.8516    1.9491    1.9575    2.0485
    2.4229    2.4612    2.5089    2.7819    2.9039    2.9506    3.1653    3.2857    3.5988    3.6813
    4.0376    4.1865    4.3331    4.3707    4.5128    4.5175    4.5822    4.8499    5.0008    5.1068
    5.1314    5.4965    5.6516    5.9011    6.1148    6.1784    6.2237    6.3257    6.4533    6.5390
    6.7805    7.0900    7.3588    7.5141    7.6945    7.7723    7.9935    8.1990    8.3814    8.6912
    8.7969    8.8193    8.9674    9.0353    9.0702    9.2739    9.2904    9.6435    9.7956    9.8646
    9.9497   10.2070   10.3001   10.3758   10.4252   10.8868   10.9003   10.9516   11.2164   11.3337
   11.5058   11.6278   11.8663   12.0158   12.3535   12.4772   12.6254   12.8845   13.1859   13.2817
   13.2845   13.4292   13.9274   14.1303   14.1464   14.3252   14.5537   14.8602   15.2118   15.2420
   15.4851   15.5343   15.7748   16.1600   16.3497   16.4631   16.5461   16.5518   16.9138   16.9199
   17.2750   17.3382   17.8509   17.9492   18.1550   18.4382   18.6672   18.7738   18.8850   19.0549
   19.1969   19.4684   19.6388   19.8705   19.8971   20.0427   20.3898   20.3930   20.6464   20.7871
   20.8762   21.3302   21.4967   21.5939   22.1076   22.2146   22.2868   22.5630   22.6943   23.0025
   23.1079   23.2570   23.3047   23.4674   23.6607   24.2539   24.3772   25.2202   25.4808   25.5070
   25.7298   25.8167   26.5187   26.9988   27.4688   27.5394   28.2423   28.7335   28.8992   29.0076
   30.1285   30.3925   30.5368   31.1722   31.4011   31.6350   32.0653   32.7206   33.0735   33.7046
   34.0628   34.2763   34.8102   35.1457   35.5026   35.5462   35.8577   36.7055   36.7777   37.5729
   37.7130   38.0914   38.3582   38.6688   38.6794   39.9039   41.2551   41.3424   41.8598   42.4738
   42.6313   43.7440   43.8574   44.9348   45.1454   45.9934   48.6101   50.5416   51.5226   54.0375
   55.4831   59.3516   60.8527   68.9779   69.6226
   5  1  -16.1322  -15.4249  -15.3601  -14.6379  -14.5848  -14.3570  -13.8991  -13.2482  -11.9787  -11.6165
         -11.3753  -11.2074  -10.6618  -10.1861   -9.8889   -9.3094   -8.7853   -8.6979   -8.5643   -8.0819
   -7.9025   -7.7371   -7.6702   -7.2610   -7.2193   -7.1683   -6.8471   -6.5680   -6.5397   -6.4885
   -6.2774   -6.2210   -6.0988   -5.9365   -5.8384   -5.6160   -2.9412   -2.7971   -2.2929   -2.2035
   -2.1608   -2.0605   -1.9716   -1.9350   -1.8001   -1.4930   -1.3437   -1.3274   -1.2544   -1.0872
   -1.0667   -1.0199   -0.8804   -0.5078   -0.4769   -0.3204   -0.2177   -0.1351    0.4826    0.5781
    0.5877    0.6054    0.8086    0.8551    1.2693    1.3595    1.6736    1.7487    1.9008    2.0854
    2.3379    2.5207    2.5662    2.7083    2.8678    3.0002    3.0437    3.4418    3.4650    3.6658
    3.8628    3.9774    4.3140    4.3975    4.4718    4.6139    4.7670    4.8174    4.9094    5.1913
    5.2585    5.4550    5.8115    5.8704    6.0853    6.1126    6.1768    6.2701    6.4845    6.5593
    6.9741    7.0485    7.5655    7.5773    7.7367    7.8996    8.1540    8.2654    8.4719    8.8298
    8.8365    8.9307    9.0583    9.0824    9.1559    9.3834    9.4065    9.6128    9.7466    9.8928
   10.0286   10.2436   10.3872   10.4903   10.4959   10.8310   10.9073   11.0176   11.2253   11.3671
   11.6073   11.6695   11.9300   11.9313   12.3823   12.4879   12.8079   12.9101   13.1757   13.1923
   13.3050   13.5374   14.0050   14.0993   14.1039   14.3833   14.7170   14.8111   15.2142   15.2442
   15.4304   15.5794   15.9774   15.9845   16.3965   16.4990   16.5289   16.6891   16.8270   17.0003
   17.1126   17.2259   17.7929   17.9096   18.0138   18.3763   18.6377   18.7760   18.7832   18.9776
   19.1878   19.3944   19.4993   19.5936   19.6248   19.8598   20.1799   20.2969   20.5938   20.6900
   20.8175   21.2929   21.5226   21.7005   22.1269   22.1888   22.3625   22.4701   22.7596   22.9505
   23.0005   23.3082   23.3154   23.4263   23.7735   24.1909   24.5510   25.1166   25.3523   25.5161
   25.6625   25.6920   26.5833   27.1326   27.3136   27.5178   28.1808   28.4845   28.5897   29.0795
   29.8627   30.3321   30.9862   31.2000   31.4625   31.8164   32.3231   32.9086   33.6013   33.6501
   34.1805   34.3990   34.9859   35.0297   35.4467   35.6802   36.5730   36.8489   37.3535   37.7508
   37.9061   38.0236   38.6925   39.2225   39.4378   40.4110   41.5534   41.5859   41.6769   43.0949
   43.1575   43.8581   44.5158   45.2301   45.4997   45.9562   48.0700   49.7881   50.3901   54.2472
   55.6342   58.6642   59.0233   69.2012   69.5450
   6  1  -16.0867  -15.3778  -15.3149  -14.5913  -14.5372  -14.3169  -13.8524  -13.2161  -11.9762  -11.6321
         -11.3680  -11.1956  -10.6689  -10.1900   -9.8879   -9.2929   -8.8133   -8.6960   -8.6228   -8.0715
   -7.9126   -7.8882   -7.6545   -7.4417   -7.3716   -7.2197   -7.0521   -6.7729   -6.7704   -6.5631
   -6.3187   -6.2471   -6.1435   -6.0901   -6.0118   -5.7255   -2.7097   -2.6082   -2.2873   -2.0165
   -2.0106   -1.8512   -1.8235   -1.7524   -1.7236   -1.6054   -1.2606   -1.2011   -1.1371   -1.1007
   -1.0564   -0.9412   -0.8037   -0.5937   -0.4844   -0.3331   -0.1703   -0.0342    0.3761    0.4444
    0.5217    0.6087    0.8560    1.0143    1.0527    1.3306    1.5094    1.5226    1.8664    2.0680
    2.2553    2.5717    2.5876    2.7163    2.8058    2.9784    3.0354    3.3442    3.4863    3.6176
    3.7978    3.8123    4.1260    4.4036    4.4477    4.6133    4.8462    4.8941    5.0369    5.2216
    5.2678    5.5818    5.7339    5.8365    6.0687    6.2002    6.2166    6.2748    6.4576    6.6988
    6.9223    7.1956    7.5412    7.7264    7.8245    8.0683    8.2727    8.3678    8.6026    8.8372
    8.8744    9.1141    9.1563    9.1835    9.2700    9.4746    9.5761    9.6838    9.7233    9.9296
   10.1839   10.2701   10.4833   10.5930   10.5974   10.8003   10.9509   11.0814   11.2723   11.4050
   11.6441   11.7547   11.8978   12.0771   12.4312   12.5410   12.9390   13.0227   13.0921   13.1448
   13.3760   13.6653   13.9100   14.0856   14.2792   14.4491   14.7042   14.9129   15.0671   15.2911
   15.3529   15.6706   15.9217   16.0838   16.3401   16.5214   16.5637   16.6444   16.8910   16.9721
   17.0431   17.0577   17.7454   17.8236   17.8621   18.2453   18.5865   18.6630   18.7103   18.7180
   19.2372   19.2565   19.3445   19.3621   19.4265   19.6713   19.9931   20.2265   20.4643   20.4971
   20.8782   21.2572   21.5607   21.8165   22.1423   22.1564   22.3918   22.4334   22.7386   22.8826
   22.9037   23.1805   23.3496   23.5081   23.9146   24.0671   24.6983   25.0196   25.2115   25.4961
   25.5251   25.5946   26.6058   27.1391   27.1709   27.5620   28.1638   28.1729   28.3997   29.2605
   29.5264   30.2422   31.0348   31.5501   31.5788   31.8940   32.5533   33.1211   33.4365   33.7410
   34.1374   34.5725   34.7692   35.3045   35.5045   35.9605   36.8053   36.8783   37.7095   37.8316
   38.0424   38.6476   38.8357   39.5473   39.9299   41.3674   41.3767   41.6868   41.7071   42.7884
   43.3905   43.6514   44.9679   45.4308   45.9703   46.9464   48.5438   49.2296   50.3074   54.5062
   55.6057   57.1148   58.0413   69.4658   69.4849
   7  1  -16.0303  -15.3202  -15.2602  -14.5347  -14.4793  -14.2685  -13.7956  -13.1799  -11.9743  -11.6553
         -11.3627  -11.1841  -10.6818  -10.1983   -9.8916   -9.2767   -8.8496   -8.7125   -8.6994   -8.0697
   -8.0630   -7.8737   -7.6677   -7.6318   -7.5000   -7.2917   -7.2353   -7.0060   -6.9677   -6.6967
   -6.3789   -6.3210   -6.2222   -6.1882   -6.1558   -5.7904   -2.6302   -2.3651   -2.2747   -2.0988
   -1.9588   -1.7583   -1.6501   -1.5914   -1.5182   -1.4691   -1.3350   -1.2525   -1.1527   -0.9668
   -0.8150   -0.7485   -0.6779   -0.5743   -0.4544   -0.2996   -0.1108    0.0884    0.2757    0.3049
    0.3765    0.6725    0.8637    0.8854    1.1694    1.2501    1.2776    1.5312    1.8292    1.9224
    2.2757    2.4560    2.6360    2.7621    2.8041    2.9189    3.0377    3.2535    3.2994    3.6249
    3.7294    3.9135    3.9480    4.3048    4.4267    4.5539    4.8276    5.0178    5.2237    5.2316
    5.3815    5.5574    5.6280    5.8990    6.0222    6.2714    6.3089    6.3890    6.4880    6.7782
    6.8527    7.3364    7.5645    7.7001    8.0390    8.1864    8.3756    8.4486    8.7246    8.8663
    8.9627    9.1847    9.2770    9.2984    9.4101    9.5947    9.7511    9.7829    9.8437    9.9625
   10.3195   10.4008   10.5238   10.6847   10.7137   10.8620   11.0074   11.1341   11.3651   11.4624
   11.6279   11.8824   11.9840   12.1981   12.5259   12.6430   12.9351   13.0529   13.1448   13.2481
   13.4436   13.7840   13.8673   14.0793   14.4371   14.4970   14.6594   14.9097   15.0607   15.1321
   15.4820   15.7458   15.9212   16.1056   16.2443   16.3662   16.5216   16.6421   16.7473   16.9227
   16.9330   17.1975   17.6757   17.7067   17.7729   18.0600   18.3483   18.4057   18.5522   18.5707
   18.9685   19.1434   19.1985   19.3345   19.3901   19.5267   19.8528   20.1997   20.2336   20.3781
   20.8765   21.2611   21.5732   21.9090   22.0839   22.1363   22.3525   22.4857   22.6333   22.7973
   22.8768   23.0550   23.3467   23.5847   23.9051   24.0409   24.7841   24.9290   25.1353   25.3336
   25.4466   25.5263   26.5872   26.9528   27.1901   27.5375   27.9465   28.0983   28.3082   29.2242
   29.3692   30.1340   31.0650   31.6551   31.6710   31.7656   32.6852   33.0728   33.1690   33.6853
   34.0964   34.5835   34.6047   35.4714   35.5398   36.7344   36.8368   37.1208   37.5706   37.8877
   38.1738   38.8801   39.1717   39.3753   40.1928   41.2658   41.2809   41.6980   41.9670   42.8726
   42.9102   43.9237   45.1929   45.3876   45.7426   48.4406   49.0040   50.2661   50.4258   53.9845
   55.7239   56.1717   57.8289   69.4342   69.7291
   8  1  -15.9632  -15.2522  -15.1963  -14.4683  -14.4113  -14.2124  -13.7290  -13.1420  -11.9728  -11.6886
         -11.3617  -11.1749  -10.7028  -10.2131   -9.9037   -9.2653   -8.8907   -8.8350   -8.7127   -8.2006
   -8.0593   -7.8961   -7.8427   -7.6139   -7.6130   -7.5106   -7.2900   -7.2178   -7.1393   -6.8813
   -6.5464   -6.3972   -6.3309   -6.2090   -6.2041   -5.8531   -2.5664   -2.4610   -2.2239   -2.0526
   -1.9251   -1.8233   -1.6460   -1.4803   -1.4233   -1.2926   -1.2499   -1.1378   -1.0323   -1.0144
   -0.7127   -0.6332   -0.4436   -0.3992   -0.3063   -0.1533   -0.0416    0.1273    0.2012    0.2901
    0.3281    0.6386    0.8054    0.8407    1.0288    1.0835    1.4874    1.5977    1.7840    1.7904
    2.2911    2.3013    2.7001    2.7593    2.7738    2.8331    2.9672    3.1906    3.2615    3.5821
    3.7494    3.7987    4.0252    4.2148    4.2508    4.6580    4.8280    5.0708    5.3234    5.3305
    5.3812    5.5299    5.5849    5.8798    6.1216    6.2977    6.3672    6.4672    6.6019    6.7781
    6.9372    7.2771    7.6858    7.7825    8.1898    8.1993    8.4627    8.5109    8.8194    8.9246
    9.1296    9.2279    9.3530    9.4649    9.5213    9.7738    9.8480    9.9236    9.9630   10.0705
   10.4064   10.5408   10.6282   10.7582   10.8001   11.0465   11.0630   11.2041   11.4861   11.5505
   11.6535   11.9826   12.1796   12.2627   12.6800   12.7283   12.9719   13.0863   13.1793   13.4487
   13.5295   13.8461   13.8913   14.0546   14.5084   14.5614   14.6886   14.8078   15.0132   15.1835
   15.5116   15.8436   15.8635   16.0661   16.1003   16.1791   16.3586   16.5035   16.6610   16.8218
   16.9743   17.3619   17.5229   17.5804   17.8161   17.8473   17.9493   18.1449   18.3798   18.4121
   18.6517   19.0729   19.1068   19.2856   19.2941   19.5155   19.7709   20.0196   20.2052   20.2314
   20.7979   21.3077   21.5139   21.9797   22.0002   22.1489   22.2432   22.4400   22.4954   22.7840
   22.8046   22.9848   23.3032   23.6541   23.7678   24.1031   24.8243   24.8328   25.1408   25.1771
   25.3762   25.4595   26.5109   26.6996   27.2519   27.3836   27.9012   27.9101   28.1085   29.1473
   29.3629   29.9916   31.0360   31.3015   31.6253   31.6925   32.4706   32.8486   33.0569   33.4370
   33.8829   34.5417   34.6701   35.5248   35.7184   36.6663   36.9692   37.2748   37.9608   38.0255
   38.3469   39.0262   39.1120   39.2400   39.7502   40.5847   40.6509   41.6768   42.1312   42.9184
   43.0300   43.5509   45.4478   45.6323   46.6267   49.0637   49.3470   50.7988   50.8606   52.4355
   56.4399   56.4948   58.1654   69.3901   69.9414
   9  1  -15.8856  -15.1740  -15.1234  -14.3924  -14.3335  -14.1492  -13.6529  -13.1061  -11.9710  -11.7343
         -11.3679  -11.1709  -10.7344  -10.2372   -9.9285   -9.2649   -8.9867   -8.9214   -8.7406   -8.3118
   -8.0844   -8.0621   -7.8425   -7.7324   -7.7075   -7.5898   -7.4443   -7.3103   -7.2709   -7.0785
   -6.7604   -6.4613   -6.3787   -6.2654   -6.2184   -5.9227   -2.6069   -2.4652   -2.3567   -2.1281
   -1.8579   -1.7307   -1.7295   -1.5424   -1.3805   -1.3368   -1.1369   -1.0399   -0.9500   -0.6870
   -0.6170   -0.5617   -0.4602   -0.1980   -0.1256    0.0423    0.0530    0.2072    0.2151    0.3526
    0.4291    0.6556    0.6923    0.8186    0.9635    1.0162    1.5405    1.6909    1.7381    1.8633
    2.1617    2.2948    2.5714    2.6184    2.8110    2.8136    2.9661    3.1811    3.3321    3.5716
    3.6739    3.7467    3.8930    4.2045    4.3160    4.7433    4.8498    5.0999    5.1868    5.3891
    5.4156    5.5849    5.6425    5.8080    6.2415    6.3267    6.4029    6.4391    6.7492    6.9489
    6.9780    7.1838    7.6989    8.0192    8.1823    8.2336    8.4789    8.6384    8.8984    8.9809
    9.3027    9.3460    9.4311    9.5776    9.5896    9.9360    9.9488    9.9981   10.0486   10.2818
   10.5177   10.5533   10.8216   10.8280   10.9182   11.0895   11.3028   11.3131   11.5486   11.6649
   11.7942   12.1147   12.2563   12.4001   12.7997   12.8889   13.1057   13.1354   13.2500   13.5374
   13.7204   13.8512   13.9508   14.0232   14.5150   14.6450   14.7362   14.7788   14.9528   15.2243
   15.4306   15.7176   15.7247   15.9765   15.9851   16.0952   16.1645   16.3080   16.7194   16.7546
   17.0157   17.2897   17.4681   17.5002   17.5593   17.6207   17.9370   17.9487   18.1901   18.2596
   18.3313   18.9853   19.0825   19.1770   19.2128   19.5070   19.7741   19.8389   20.0444   20.2251
   20.6687   21.3553   21.3754   21.9193   22.0486   22.0831   22.1745   22.3077   22.3511   22.6810
   22.7233   22.9893   23.2389   23.6611   23.7177   24.1363   24.6672   24.7584   24.9735   25.2947
   25.3795   25.4009   26.3605   26.3916   27.2073   27.3235   27.6680   27.7384   27.9059   29.2287
   29.2439   29.8264   30.7990   30.8637   31.3477   31.6115   31.9110   32.8595   32.9022   33.1411
   33.5674   34.4460   34.6803   35.4037   35.9042   36.5761   36.9355   37.0116   37.8930   38.1919
   38.5039   38.5955   38.9379   39.5310   39.8323   40.0244   40.0560   41.6565   41.9774   42.5427
   42.7032   43.7486   45.5312   46.0757   47.2068   49.0691   49.9072   50.0502   51.0862   52.2181
   56.6511   57.1563   59.1270   69.3635   70.0748
  10  1  -15.7977  -15.0857  -15.0421  -14.3074  -14.2465  -14.0799  -13.5678  -13.0773  -11.9667  -11.7948
         -11.3848  -11.1751  -10.7789  -10.2738   -9.9698   -9.2833   -9.1419   -8.9404   -8.7866   -8.4147
   -8.2615   -8.0703   -7.9422   -7.8402   -7.7906   -7.6089   -7.5659   -7.3708   -7.3592   -7.2567
   -6.9484   -6.5229   -6.4234   -6.3310   -6.2330   -6.0006   -2.7130   -2.4844   -2.4199   -2.2162
   -1.8611   -1.8486   -1.6770   -1.5851   -1.4891   -1.3421   -1.1438   -0.9820   -0.7256   -0.6795
   -0.6093   -0.3695   -0.2564   -0.1840   -0.0229   -0.0040    0.0764    0.3699    0.4882    0.5902
    0.6110    0.6322    0.6484    0.9054    0.9343    1.1521    1.4598    1.6516    1.8109    2.0634
    2.0873    2.2799    2.3686    2.4998    2.8195    2.9064    2.9892    3.1748    3.4414    3.5494
    3.6130    3.7030    3.7223    4.2819    4.4694    4.7779    4.8937    5.0105    5.1243    5.3866
    5.4847    5.6014    5.6757    5.8062    6.2806    6.3132    6.4038    6.5654    6.8905    6.9648
    7.0994    7.1737    7.7277    8.0960    8.1683    8.3101    8.5597    8.7279    8.9643    9.0411
    9.4162    9.4969    9.5017    9.6108    9.6215   10.0010   10.0833   10.1236   10.1592   10.4336
   10.5733   10.6571   10.9269   10.9671   11.0040   11.1641   11.4384   11.5392   11.5868   11.7893
   12.0166   12.2028   12.2555   12.6364   12.9219   13.1214   13.1346   13.2786   13.3639   13.6107
   13.8802   13.8874   13.9687   14.0499   14.5230   14.6484   14.7377   14.8748   14.8840   15.0221
   15.2921   15.5135   15.6309   15.6324   15.9196   16.0359   16.1179   16.2125   16.7043   16.8228
   17.0558   17.0908   17.1895   17.3830   17.4667   17.6251   17.7357   18.0156   18.0601   18.0942
   18.1690   18.9202   19.0626   19.1027   19.1041   19.4277   19.7051   19.8365   19.8575   20.2141
   20.5205   21.1935   21.3613   21.8328   21.9040   22.0927   22.1856   22.1894   22.2167   22.5898
   22.6070   23.0186   23.1661   23.5186   23.7658   24.1278   24.4374   24.5915   24.8239   25.2113
   25.3502   25.6319   26.0425   26.1501   27.0478   27.1926   27.3903   27.5222   27.8708   29.0298
   29.1348   29.6797   30.3447   30.5283   31.1236   31.3228   31.4216   32.6489   32.8804   32.9314
   33.2380   34.1848   34.5005   35.1202   35.9320   36.4323   36.7886   36.8635   37.3143   38.3021
   38.4110   38.5684   39.0721   39.0722   39.4730   39.8684   40.2932   41.5343   41.5653   42.0792
   42.4222   44.2269   45.4446   46.5010   47.1859   48.5445   48.8698   50.0292   51.8536   52.7795
   56.2961   57.7407   60.1011   69.3749   70.1359
  11  1  -15.6998  -14.9875  -14.9528  -14.2138  -14.1512  -14.0050  -13.4741  -13.0623  -11.9556  -11.8719
         -11.4161  -11.1913  -10.8374  -10.3260  -10.0300   -9.3381   -9.2772   -8.9387   -8.8486   -8.5144
   -8.4143   -8.1353   -8.0787   -7.8920   -7.8518   -7.7157   -7.5429   -7.4480   -7.4414   -7.3564
   -7.0931   -6.5859   -6.4739   -6.4043   -6.2511   -6.0853   -2.8147   -2.6005   -2.4378   -2.2188
   -1.9642   -1.8879   -1.7669   -1.6412   -1.5813   -1.3045   -1.1486   -0.9994   -0.7672   -0.6978
   -0.5974   -0.3415   -0.1960    0.0232    0.0783    0.1215    0.1390    0.2705    0.5150    0.5648
    0.7553    0.9183    1.0443    1.0653    1.1235    1.3580    1.4188    1.5400    1.9478    2.0136
    2.0799    2.2492    2.3161    2.5736    2.8313    2.9312    3.0534    3.1793    3.4178    3.5493
    3.5865    3.7231    3.7360    4.3814    4.6197    4.7582    4.8401    4.9666    5.1553    5.3740
    5.5412    5.5890    5.6214    5.8822    6.2815    6.3187    6.4654    6.7050    6.9280    7.0001
    7.0371    7.3969    7.7435    8.0838    8.0898    8.5021    8.6584    8.7642    9.0276    9.1262
    9.3937    9.5415    9.5511    9.6328    9.7980   10.0299   10.1568   10.1939   10.3171   10.5220
   10.6084   10.7913   11.0279   11.0624   11.1005   11.2376   11.5348   11.5436   11.8710   11.8990
   12.1446   12.2528   12.3737   12.8763   12.9824   13.1103   13.3769   13.4012   13.5228   13.7102
   13.9200   13.9435   13.9902   14.1752   14.4472   14.6244   14.6604   14.6985   14.8149   14.9597
   15.0795   15.1700   15.5915   15.6665   15.8599   15.9282   16.0066   16.2124   16.6322   16.8424
   16.9096   17.0576   17.2038   17.2494   17.3575   17.6299   17.7375   17.8286   17.9128   18.1541
   18.2269   18.8645   18.9651   19.0429   19.0673   19.3110   19.6280   19.6386   19.9602   20.1281
   20.4149   21.0092   21.2926   21.6808   21.8113   22.0096   22.0695   22.1229   22.2790   22.4767
   22.5626   23.0495   23.0713   23.3172   23.7283   24.0198   24.2214   24.3660   24.7319   25.1293
   25.2875   25.6368   25.8218   25.9102   26.8341   26.8792   27.0976   27.5030   27.7662   28.7403
   28.7766   29.5595   29.7127   30.4037   30.7831   31.0604   31.1427   32.3135   32.8360   32.8536
   32.9869   33.7686   34.0761   34.7297   35.7795   36.2220   36.4554   36.8193   37.1375   38.2255
   38.4045   38.5635   38.7261   38.9764   39.3073   39.7198   40.1285   40.9319   41.1607   42.0895
   42.4622   44.6052   45.3471   46.5894   47.0902   47.3968   48.3003   50.0446   52.6717   53.0332
   55.5751   58.2111   60.6524   69.4407   70.1524
  12  1  -15.5922  -14.8797  -14.8562  -14.1124  -14.0495  -13.9249  -13.3728  -13.0684  -11.9663  -11.9321
         -11.4651  -11.2227  -10.9096  -10.3966  -10.1086   -9.4651   -9.3463   -8.9222   -8.9181   -8.6081
   -8.5401   -8.3074   -8.0822   -8.0146   -7.8855   -7.7652   -7.5501   -7.5202   -7.5146   -7.3633
   -7.1970   -6.6510   -6.5327   -6.4835   -6.2739   -6.1739   -2.9047   -2.7014   -2.5005   -2.1582
   -2.0681   -1.9563   -1.8847   -1.7102   -1.6693   -1.2609   -1.1480   -1.0763   -0.8284   -0.7507
   -0.7077   -0.3239   -0.1433    0.0090    0.0480    0.1335    0.2093    0.4757    0.5835    0.6733
    0.7526    1.1370    1.2189    1.3603    1.3684    1.5103    1.5568    1.7011    1.8839    2.0467
    2.1109    2.2397    2.3286    2.7748    2.8296    2.8593    3.2176    3.2246    3.3367    3.5494
    3.6641    3.7866    3.8841    4.4303    4.6757    4.7367    4.8070    5.0492    5.1981    5.3334
    5.4735    5.6278    5.6284    5.9552    6.2879    6.3636    6.5372    6.8351    6.8848    6.9479
    7.1130    7.6072    7.7188    8.0522    8.0710    8.6397    8.7553    8.7592    9.1002    9.2406
    9.2449    9.5722    9.6401    9.6636    9.9836   10.0275   10.1618   10.1943   10.4284   10.6110
   10.6447   10.8527   11.0719   11.1186   11.2021   11.3307   11.5075   11.6191   11.9802   12.0472
   12.2156   12.4048   12.4570   12.8567   13.0920   13.1785   13.4333   13.5471   13.6463   13.8175
   13.9092   14.0101   14.0339   14.1905   14.3214   14.4551   14.4732   14.5473   14.7828   14.8246
   15.0703   15.1013   15.6146   15.6363   15.8964   15.9133   16.0918   16.2157   16.4931   16.6215
   16.8383   17.1309   17.1743   17.2355   17.4083   17.6803   17.7043   17.8103   17.8754   18.2511
   18.3122   18.7916   18.8261   18.9789   19.0423   19.2470   19.4529   19.6304   19.9784   20.0577
   20.3641   20.8501   21.1588   21.5164   21.7733   21.8169   22.0162   22.0838   22.3064   22.3351
   22.6060   22.9396   23.0446   23.0585   23.5024   23.8643   24.0882   24.2071   24.6666   25.0391
   25.1837   25.2702   25.6631   25.7976   26.5786   26.6863   26.7674   27.3893   27.5992   28.2941
   28.5581   29.0508   29.4231   30.2552   30.3338   30.8224   31.0394   32.0768   32.6321   32.7714
   32.9647   33.2812   33.4901   34.3301   35.5668   35.9114   36.0745   36.8216   37.1439   38.0281
   38.2045   38.5824   38.6183   38.7220   39.3954   39.5164   39.8963   40.3313   40.8863   41.6853
   42.9178   44.6985   45.2810   46.4493   46.5492   47.2034   47.5998   50.1070   52.5781   53.2576
   54.9209   58.4264   60.7368   69.5614   70.1539
  13  1  -15.4752  -14.7628  -14.7532  -14.0041  -13.9467  -13.8374  -13.2651  -13.1015  -12.0774  -11.8907
         -11.5347  -11.2719  -10.9931  -10.4872  -10.2032   -9.6011   -9.4086   -8.9835   -8.8987   -8.6965
   -8.6388   -8.4456   -8.1287   -8.0796   -7.9409   -7.7890   -7.6110   -7.5799   -7.5038   -7.3367
   -7.2734   -6.7169   -6.6009   -6.5661   -6.3020   -6.2626   -2.9806   -2.7852   -2.5606   -2.1606
   -2.1451   -2.0226   -1.9601   -1.7824   -1.7537   -1.2929   -1.1518   -1.1016   -1.0260   -0.7323
   -0.7219   -0.4071   -0.1338   -0.0939    0.0502    0.0673    0.3129    0.4167    0.5941    0.9373
    1.0198    1.0636    1.2245    1.3454    1.5563    1.7760    1.9433    1.9837    2.0323    2.1223
    2.2300    2.2604    2.3869    2.6747    2.8298    3.0189    3.1957    3.4717    3.4810    3.5794
    3.7750    3.8676    4.0423    4.3577    4.6649    4.7656    4.9475    5.1349    5.2366    5.3233
    5.3407    5.6868    5.6881    6.0172    6.3236    6.4205    6.5850    6.8692    6.8699    6.9485
    7.1848    7.6490    7.7997    8.0433    8.0615    8.7003    8.7516    8.8370    9.1069    9.1776
    9.3657    9.5612    9.6525    9.7752    9.9787   10.0947   10.1485   10.1683   10.4654   10.6682
   10.7080   10.8481   11.0486   11.0675   11.2721   11.3613   11.4612   11.7423   12.0427   12.0524
   12.2447   12.4055   12.4938   12.8181   13.1928   13.2563   13.3442   13.4565   13.6288   13.8071
   13.9157   13.9244   13.9807   14.1752   14.2365   14.4423   14.5514   14.5526   14.7733   14.8326
   15.1286   15.1306   15.5432   15.7543   16.0048   16.1013   16.2194   16.2941   16.3078   16.5028
   16.7903   16.9598   17.2065   17.4109   17.5464   17.5931   17.8008   17.8109   17.9902   18.3893
   18.4629   18.6418   18.7743   18.8553   19.0401   19.2503   19.3249   19.6824   19.8323   20.1353
   20.3195   20.7231   20.9998   21.3681   21.6233   21.7397   21.9461   21.9947   22.1917   22.2571
   22.6821   22.7621   22.7895   22.9101   23.3299   23.7160   23.8196   24.3340   24.5149   24.9000
   24.9549   25.0422   25.4305   25.6208   26.3640   26.4827   26.4969   27.1110   27.4014   28.0035
   28.4168   28.4689   29.2278   29.9792   30.0648   30.5283   30.7938   32.0240   32.3133   32.5140
   32.8325   33.0393   33.0639   33.9605   35.3233   35.4829   35.6957   36.8307   37.1153   37.8209
   37.9880   38.3075   38.5416   38.8105   39.3736   39.5760   39.6807   39.8565   40.6922   41.2237
   43.2607   44.4316   45.0396   46.0734   46.2712   46.9433   47.7166   50.0534   51.4239   53.5696
   54.5111   58.3294   60.4322   69.7249   70.1583
  14  1  -15.3495  -14.6450  -14.6370  -13.8906  -13.8531  -13.7361  -13.1637  -13.1527  -12.2031  -11.8281
         -11.6256  -11.3393  -11.0829  -10.5975  -10.3113   -9.7272   -9.4842   -9.0344   -8.8754   -8.7863
   -8.7122   -8.5285   -8.2195   -8.0726   -8.0022   -7.8036   -7.6434   -7.6358   -7.4920   -7.3320
   -7.2930   -6.7813   -6.6780   -6.6480   -6.3471   -6.3362   -3.0414   -2.8514   -2.6109   -2.2549
   -2.2446   -2.0700   -1.9260   -1.8485   -1.8285   -1.4003   -1.2497   -1.1076   -1.0617   -0.7652
   -0.7010   -0.4560   -0.2789   -0.2050    0.0416    0.1182    0.3791    0.4185    0.5226    0.9321
    1.0438    1.1062    1.1633    1.5690    1.6314    2.0165    2.0281    2.2083    2.2811    2.2896
    2.3770    2.4143    2.5946    2.6952    2.8828    3.1441    3.1991    3.5895    3.7263    3.7810
    3.9562    3.9930    4.1652    4.2579    4.6866    4.8592    5.0718    5.1520    5.2735    5.2872
    5.4187    5.7226    5.7513    6.1081    6.3829    6.4729    6.5748    6.7861    6.9195    7.0341
    7.2369    7.5717    7.9444    7.9883    8.1028    8.6724    8.7812    8.8465    9.0520    9.2379
    9.4478    9.5364    9.6758    9.8659    9.9071    9.9765   10.1346   10.2223   10.4784   10.6927
   10.7680   10.7998   10.9119   11.0180   11.1836   11.2676   11.4096   11.8848   11.9996   12.0311
   12.1048   12.2565   12.4399   12.8366   13.0352   13.1635   13.2626   13.3753   13.5426   13.6692
   13.7907   13.9309   13.9945   14.2133   14.3980   14.4466   14.6388   14.7897   14.8468   15.0459
   15.1682   15.2308   15.5117   15.9227   16.0648   16.1490   16.2609   16.3402   16.5721   16.5874
   16.7819   16.8845   17.2011   17.4369   17.5686   17.7747   17.8881   17.9325   18.0327   18.5074
   18.5440   18.7106   18.7362   18.8051   19.0574   19.2325   19.2594   19.7240   19.8014   20.1836
   20.2585   20.6161   20.8451   21.2284   21.4471   21.6822   21.7583   21.8022   22.0940   22.1923
   22.5605   22.5753   22.6005   22.8507   23.2971   23.4846   23.6490   24.2781   24.5076   24.6471
   24.7067   24.9288   25.2458   25.4015   25.9985   26.2943   26.3829   26.7087   27.2012   27.8945
   28.0589   28.3598   28.9890   29.6819   29.8720   30.3179   30.3538   31.8052   31.8116   32.2163
   32.7306   32.8790   32.9941   33.6338   34.9769   35.0331   35.3452   36.8307   37.0586   37.6052
   37.8275   38.0145   38.4364   38.9691   39.2590   39.4922   39.5300   39.7869   40.5999   40.7358
   43.5146   44.0540   44.6486   45.5649   46.0539   46.6556   48.3492   49.9990   50.0246   53.5301
   54.1415   58.0001   59.8365   69.9198   70.1700
  15  1  -15.2155  -14.5336  -14.5032  -13.7793  -13.7743  -13.6161  -13.2518  -13.0385  -12.3394  -11.7532
         -11.7289  -11.4218  -11.1721  -10.7257  -10.4312   -9.8392   -9.5813   -9.0650   -8.8899   -8.8318
   -8.7637   -8.5565   -8.2836   -8.0647   -8.0533   -7.8160   -7.6872   -7.6629   -7.4876   -7.3760
   -7.2400   -6.8413   -6.7619   -6.7236   -6.4240   -6.3766   -3.0874   -2.8997   -2.6563   -2.3678
   -2.3248   -2.1450   -1.9144   -1.9020   -1.8247   -1.5127   -1.4039   -1.1078   -1.0141   -0.8071
   -0.6950   -0.4702   -0.4115   -0.3373    0.0094    0.1297    0.3875    0.4726    0.5284    0.8419
    0.9875    1.0641    1.1173    1.5258    1.9236    2.0861    2.1660    2.2056    2.3140    2.4379
    2.4870    2.6438    2.9499    3.0254    3.0998    3.2187    3.3024    3.6306    3.9029    3.9575
    4.1583    4.2366    4.3060    4.3462    4.7007    4.9422    5.1106    5.1708    5.3521    5.3563
    5.6136    5.7348    5.8182    6.2487    6.4499    6.4761    6.5699    6.7049    7.0088    7.0833
    7.2734    7.4978    7.9144    8.0268    8.1693    8.5937    8.7673    8.8170    9.1057    9.2497
    9.4094    9.5488    9.6933    9.7296    9.8622    9.9500   10.1005   10.1975   10.5042   10.6674
   10.7209   10.7287   10.7299   10.9578   10.9984   11.1257   11.3368   11.6805   11.8976   11.9155
   12.0358   12.0955   12.4104   12.5543   12.8779   13.0596   13.1669   13.3594   13.5823   13.5961
   13.7174   13.9998   14.0567   14.2105   14.4509   14.6517   14.7554   14.9112   15.0612   15.2560
   15.3126   15.3910   15.5259   15.8050   16.1687   16.2924   16.4007   16.4893   16.6719   16.8260
   16.9025   16.9892   17.1722   17.4095   17.7223   17.8493   17.8804   18.0977   18.1613   18.5533
   18.6356   18.7190   18.7589   19.0233   19.1057   19.1587   19.2959   19.6680   19.9785   20.1733
   20.1999   20.5204   20.7098   21.0890   21.3046   21.4140   21.5729   21.6644   21.9706   22.1422
   22.4048   22.4111   22.4789   22.8692   23.2035   23.2851   23.4618   24.0788   24.3118   24.4880
   24.5336   24.9759   25.1398   25.1534   25.6935   26.1110   26.1413   26.3807   27.0087   27.8495
   27.8983   28.3692   28.7588   29.4293   29.6827   29.8487   30.2013   31.2411   31.3443   32.1519
   32.6754   32.7096   32.8587   33.3796   34.5035   34.6765   35.1134   36.8147   36.9523   37.3195
   37.6596   37.7902   38.3864   39.0726   39.0784   39.2739   39.4094   39.9181   40.2760   40.6974
   43.6855   43.7752   44.3083   45.0129   45.8319   46.4677   48.5703   48.6662   50.2234   53.1405
   53.7619   57.5832   59.0693   70.1416   70.1864
  16  1  -15.0740  -14.4217  -14.3622  -13.7299  -13.6596  -13.4819  -13.3561  -12.9273  -12.4803  -11.8699
         -11.6417  -11.5126  -11.2514  -10.8680  -10.5602   -9.9382   -9.7010   -9.0739   -8.9383   -8.8135
   -8.7983   -8.5521   -8.3238   -8.0904   -8.0566   -7.8292   -7.7379   -7.6779   -7.4932   -7.4068
   -7.1837   -6.8934   -6.8481   -6.7869   -6.4912   -6.4234   -3.1200   -2.9303   -2.7048   -2.4556
   -2.4060   -2.2098   -1.9814   -1.9397   -1.7693   -1.5780   -1.5351   -1.1038   -0.9730   -0.8546
   -0.7016   -0.5248   -0.4693   -0.4515   -0.0567    0.0712    0.4439    0.4554    0.6350    0.7770
    0.9134    0.9698    1.1529    1.4876    1.8590    2.0299    2.1721    2.2315    2.3971    2.5884
    2.7633    2.8289    3.2034    3.2197    3.3050    3.4144    3.5601    3.8045    3.9459    4.1335
    4.3463    4.3733    4.5438    4.6853    4.7123    4.9816    5.2173    5.2892    5.4374    5.4661
    5.7504    5.8645    5.8965    6.4131    6.4215    6.5127    6.6135    6.6438    7.0988    7.1015
    7.2900    7.4362    7.8488    8.0654    8.2182    8.4712    8.6976    8.8385    9.1675    9.1879
    9.3331    9.4055    9.5019    9.6898    9.8713    9.9231   10.0708   10.1345   10.4007   10.4150
   10.5564   10.6392   10.6402   10.8796   10.9456   10.9992   11.2372   11.3061   11.6586   11.7351
   11.8801   12.0006   12.3775   12.4907   12.6693   12.9933   13.0583   13.4389   13.5209   13.5285
   13.8595   14.0184   14.0788   14.2774   14.5515   14.7409   14.9334   15.0308   15.3153   15.3803
   15.3916   15.4442   15.6737   15.8411   16.2491   16.4237   16.5074   16.6651   16.7490   16.9564
   17.0664   17.2409   17.3186   17.4793   17.7721   17.8151   17.9076   18.2500   18.3821   18.6796
   18.6903   18.7435   18.8522   19.0950   19.1276   19.1971   19.4703   19.6607   20.0661   20.1468
   20.1894   20.4871   20.6101   20.9554   21.1826   21.1831   21.3779   21.6025   21.7909   22.0266
   22.2919   22.3567   22.4233   22.8221   22.9038   23.2315   23.2563   23.8781   23.9500   24.3487
   24.3583   24.7869   25.0383   25.3042   25.4542   25.7224   26.0475   26.2197   26.8289   27.7883
   27.9308   28.3834   28.5864   29.2618   29.2986   29.5945   30.1577   30.7029   30.9238   32.0611
   32.4411   32.5065   32.6359   33.3043   34.1825   34.3796   34.9262   36.7138   36.7644   36.8583
   37.4616   37.7752   38.3948   38.8681   38.9969   39.0368   39.5091   39.8881   39.9263   40.9650
   43.5662   43.8383   44.0574   44.6227   45.6494   46.0957   47.4869   48.4490   50.3984   52.5668
   53.3590   57.1499   58.3528   70.2053   70.3885
  17  1  -14.9262  -14.3142  -14.2149  -13.7136  -13.5548  -13.4698  -13.3291  -12.8275  -12.6153  -12.0155
         -11.6002  -11.5317  -11.3094  -11.0195  -10.6915  -10.0380   -9.8237   -9.0634   -8.9541   -8.8222
   -8.7934   -8.5337   -8.3459   -8.1108   -8.0532   -7.8443   -7.7866   -7.6904   -7.5104   -7.4273
   -7.1319   -6.9318   -6.9306   -6.8319   -6.5474   -6.4761   -3.1418   -2.9431   -2.7590   -2.5140
   -2.4911   -2.2589   -2.0460   -1.9601   -1.8071   -1.6385   -1.5278   -1.1007   -0.9446   -0.9032
   -0.7138   -0.6130   -0.5708   -0.4360   -0.1515   -0.0237    0.4596    0.5134    0.7304    0.7397
    0.8752    0.9071    1.1740    1.4553    1.7569    1.9411    2.1417    2.1948    2.4076    2.6314
    2.9133    3.1415    3.2674    3.3378    3.5339    3.5504    3.8453    4.1072    4.1204    4.3356
    4.4437    4.5359    4.7269    4.8417    4.9648    5.0892    5.4208    5.4578    5.5300    5.6117
    5.8154    6.0074    6.1448    6.3813    6.4683    6.5917    6.6591    6.6623    7.1142    7.1747
    7.2707    7.3948    7.8267    8.0809    8.2071    8.3223    8.6643    8.8091    8.9667    9.0436
    9.2511    9.2574    9.3704    9.6832    9.6957    9.8405   10.0200   10.0895   10.1024   10.3015
   10.3101   10.5567   10.5671   10.7525   10.8001   10.9269   11.0011   11.2994   11.3324   11.5488
   11.7462   11.9121   12.2957   12.4746   12.6900   12.7794   13.0161   13.4233   13.5439   13.5545
   13.9786   14.0607   14.0708   14.3834   14.6396   14.8441   15.0322   15.1670   15.3603   15.3909
   15.4842   15.6406   15.6637   16.1132   16.3094   16.5938   16.5980   16.6624   16.9547   16.9932
   17.2723   17.4008   17.5827   17.6075   17.7830   17.8268   18.0380   18.4261   18.5332   18.6825
   18.7537   18.8826   18.9420   19.1183   19.1559   19.3147   19.6572   19.6739   19.9835   20.1638
   20.2524   20.5649   20.5815   20.8635   21.0564   21.0580   21.3395   21.5073   21.5968   21.8675
   22.1908   22.3657   22.3941   22.6055   22.7195   23.0297   23.1957   23.6007   23.6107   24.1398
   24.2946   24.4002   24.9826   25.0846   25.5371   25.5854   26.0684   26.1174   26.6940   27.6674
   27.9993   28.2732   28.5365   28.9280   29.2190   29.5164   30.1521   30.2468   30.5856   31.9413
   32.0913   32.2254   32.3707   33.4270   34.0238   34.1859   34.7380   36.2238   36.4703   36.5448
   37.2106   38.0135   38.3596   38.6490   38.8667   38.8887   39.5599   39.6586   39.9065   41.2816
   43.5272   43.8451   43.8534   44.3974   45.5182   45.5475   46.6643   48.2728   49.9965   52.0887
   52.8398   56.5522   58.0564   70.2267   70.6514
  18  1  -14.7733  -14.2212  -14.0632  -13.7483  -13.5492  -13.4769  -13.1753  -12.7640  -12.7145  -12.1727
         -11.6676  -11.4357  -11.3253  -11.1745  -10.8117  -10.1638   -9.9139   -9.0377   -8.9415   -8.8418
   -8.7791   -8.5121   -8.3566   -8.1178   -8.0548   -7.8610   -7.8278   -7.6989   -7.5384   -7.4421
   -7.0968   -7.0028   -6.9500   -6.8517   -6.5918   -6.5342   -3.1557   -2.9379   -2.8113   -2.5792
   -2.5510   -2.2911   -2.1024   -1.9635   -1.8753   -1.7181   -1.4254   -1.0985   -0.9484   -0.9360
   -0.7331   -0.6719   -0.6483   -0.4130   -0.2587   -0.1278    0.4735    0.5702    0.6918    0.8355
    0.8692    0.8906    1.1842    1.4305    1.6511    1.8458    2.1220    2.1667    2.4017    2.6267
    2.9771    3.1292    3.2664    3.5788    3.6641    3.8933    3.9185    4.3279    4.3490    4.4695
    4.6020    4.7367    4.9044    5.1164    5.1414    5.2334    5.5937    5.6138    5.6811    5.8059
    5.9639    6.1350    6.4034    6.4521    6.5018    6.6318    6.7111    6.7163    7.1737    7.2086
[...]
   27.8980   28.1352   28.3771   28.6700   29.3039   29.3493   29.6129   30.3441   30.4872   31.4285
   31.6414   31.8490   31.9960   33.6207   33.9699   34.2177   34.3743   34.9649   35.7926   36.1987
   36.6186   37.9899   38.0347   38.2603   38.8121   39.1054   39.5654   39.8925   39.9353   41.8413
   43.3835   43.6035   43.6281   43.9508   44.2301   45.5445   46.9438   47.5429   48.4866   51.1186
   51.4963   55.2682   58.3981   70.2744   71.1303
  20  1  -14.4630  -14.2031  -13.8475  -13.7586  -13.6271  -13.5076  -12.8471  -12.8031  -12.7032  -12.5068
         -11.6664  -11.4664  -11.3646  -11.2612  -10.8997  -10.4524   -9.9861   -8.9625   -8.8900   -8.8804
   -8.7795   -8.4806   -8.3658   -8.1039   -8.0734   -7.8860   -7.8741   -7.6958   -7.6044   -7.4636
   -7.0928   -7.0847   -6.9567   -6.7898   -6.6618   -6.6433   -3.1698   -2.8761   -2.8747   -2.7476
   -2.5914   -2.3143   -2.1774   -1.9651   -1.9292   -1.8295   -1.2047   -1.0921   -1.0151   -1.0133
   -0.8085   -0.7049   -0.6610   -0.4384   -0.3797   -0.2945    0.4976    0.6103    0.6462    0.8835
    0.9559    0.9903    1.1779    1.4156    1.4848    1.6895    2.1164    2.1385    2.3699    2.5530
    3.0795    3.1024    3.2066    3.6951    3.7523    4.0066    4.2488    4.3742    4.6175    4.9006
    4.9726    5.1353    5.2169    5.3255    5.4592    5.5276    5.7042    5.9581    5.9917    6.1023
    6.2040    6.2898    6.4963    6.7239    6.7762    6.9568    6.9748    7.0266    7.2358    7.3616
    7.3745    7.4561    7.5232    7.5916    7.9798    7.9818    8.1542    8.1750    8.3465    8.4296
    8.7215    8.8758    8.9038    9.0429    9.2471    9.5743    9.7748    9.8695    9.9413   10.0040
   10.1059   10.2142   10.2475   10.4615   10.6036   10.9037   10.9150   11.0216   11.0393   11.3824
   11.5220   11.6136   12.2426   12.4105   12.4464   12.8896   12.9609   13.2063   13.6052   13.8148
   14.0782   14.0920   14.4721   14.5569   14.8170   15.0633   15.0735   15.1306   15.2456   15.4354
   15.5479   15.9676   15.9785   16.2765   16.4962   16.7349   16.8662   16.9827   17.0643   17.0942
   17.5155   17.7087   17.8154   17.9719   17.9941   18.2416   18.2650   18.5108   18.7829   18.8743
   19.0426   19.2579   19.2957   19.4541   19.4939   19.5950   19.7030   19.7531   19.9865   20.1642
   20.3850   20.4325   20.8568   21.0082   21.0245   21.1088   21.1315   21.4728   21.6074   21.7254
   21.7628   22.0071   22.1238   22.3552   22.4016   22.5271   22.9090   23.0147   23.2187   23.4321
   23.6352   23.7073   24.4961   24.6571   25.8578   25.8724   26.0701   26.1217   26.6409   27.2661
   27.7499   28.1676   28.1729   28.6428   29.2012   29.2534   29.5192   30.5308   30.7717   31.2980
   31.4137   31.6339   31.9815   33.6382   33.9308   34.2015   34.3632   34.6699   35.5243   36.1318
   36.4011   37.6595   37.8835   38.1841   38.7980   39.0302   39.9139   40.0120   40.2773   42.0178
   42.7096   43.2292   43.4449   44.1808   44.4171   45.5737   46.6547   47.7471   48.3180   49.9817
   51.3202   54.8989   58.5803   70.2921   71.2808
  21  1  -14.3252  -14.3093  -13.8450  -13.6422  -13.6206  -13.6169  -12.7819  -12.7222  -12.6796  -12.6754
         -11.5979  -11.5725  -11.3376  -11.2812  -10.8736  -10.5189   -9.9930   -8.9243   -8.9232   -8.8645
   -8.7854   -8.4761   -8.3673   -8.0931   -8.0844   -7.8873   -7.8815   -7.6909   -7.6190   -7.4673
   -7.1044   -7.0855   -6.9580   -6.7356   -6.7204   -6.6498   -3.1717   -2.8840   -2.8207   -2.8156
   -2.5970   -2.3153   -2.1883   -1.9766   -1.9115   -1.8554   -1.1145   -1.0900   -1.0896   -1.0236
   -0.8195   -0.7020   -0.6543   -0.4695   -0.3729   -0.3236    0.5011    0.6109    0.6419    0.8887
    0.9753    1.0148    1.1729    1.4181    1.4569    1.6625    2.1185    2.1355    2.3632    2.5366
    3.0733    3.1547    3.1636    3.7151    3.7547    4.0258    4.2240    4.3773    4.6410    4.9742
    5.0957    5.2974    5.3119    5.3368    5.4466    5.5537    5.5700    6.0087    6.0327    6.0566
    6.3606    6.4525    6.6863    6.6913    6.7469    6.9263    6.9877    7.0543    7.2142    7.4655
    7.4800    7.5092    7.6233    7.6388    7.7200    7.9070    8.0266    8.1667    8.1778    8.2130
    8.7134    8.8472    8.8803    8.9530    9.2013    9.5861    9.7971    9.8349    9.9551    9.9560
   10.0744   10.1879   10.2653   10.4654   10.5818   10.8137   10.9305   11.0146   11.0291   11.3763
   11.5079   11.6111   12.2441   12.4058   12.4292   12.8758   12.9960   13.1809   13.5963   13.8060
   14.0876   14.2703   14.3346   14.5985   14.8967   14.9912   15.0576   15.1552   15.2360   15.4670
   15.5287   15.9938   15.9978   16.2689   16.5044   16.8353   16.8580   16.9245   17.0611   17.1036
   17.5696   17.7198   17.9016   17.9502   17.9582   18.2074   18.2985   18.5666   18.8449   18.9474
   19.0097   19.2830   19.3379   19.4059   19.6230   19.6751   19.7441   19.7533   20.0407   20.1960
   20.2318   20.3538   20.8551   20.9667   21.0915   21.1329   21.3281   21.3501   21.5651   21.7641
   21.8692   21.9486   22.1585   22.2116   22.3188   22.4816   22.8023   23.0580   23.2131   23.4339
   23.4746   23.6753   24.4191   24.6511   25.8954   25.9653   26.1051   26.1240   26.4348   27.4498
   27.6948   28.0143   28.1855   28.6370   29.1368   29.2072   29.5107   30.6483   31.0689   31.1543
   31.2389   31.5437   31.9856   33.6562   33.9252   34.1203   34.2760   34.7333   35.4083   36.1279
   36.3101   37.5176   37.8253   38.1503   38.7926   39.0098   39.9202   40.0431   40.7223   42.0840
   42.1992   43.1760   43.3743   44.1677   44.7492   45.6073   46.1273   48.2874   48.6511   48.9610
   51.2583   54.7736   58.6469   70.2987   71.3343

siesta: Eigenvalues (eV):
  ik is       eps
   1  1  -16.2095  -15.5086  -15.4413  -14.7212  -14.6700  -14.4292  -13.9827  -13.3099  -11.9855  -11.5962
         -11.3944  -11.2334  -10.6562  -10.1849   -9.8988   -9.3445   -8.7451   -8.7103   -8.4931   -8.1075
   -7.9316   -7.6982   -7.2763   -7.1798   -6.8646   -6.5672   -6.5609   -6.4884   -6.2099   -6.0906
   -6.0468   -5.9820   -5.9704   -5.7606   -5.4076   -5.0632   -3.6734   -3.1671   -2.9555   -2.7547
   -2.6713   -2.5448   -2.4303   -2.1102   -1.9791   -1.7411   -1.7298   -1.2631   -1.2193   -1.1904
   -0.7280   -0.6917   -0.6393   -0.4666   -0.3778   -0.3680   -0.3125   -0.0650    0.2355    0.2529
    0.3392    1.0248    1.2049    1.2133    1.2955    1.7528    1.8167    1.9195    2.1036    2.3721
    2.4103    2.4153    2.5243    2.8215    3.0117    3.1357    3.2738    3.3681    3.4835    3.6244
    3.9548    4.0931    4.4068    4.4293    4.4667    4.7146    4.7177    4.8101    4.9495    4.9683
    5.0522    5.5389    5.5957    5.8082    6.1453    6.2002    6.3091    6.4062    6.4846    6.6193
    6.9790    7.0616    7.1007    7.1652    7.2857    7.4499    7.8890    8.2127    8.3425    8.3512
    8.5324    8.7484    8.9227    8.9610    8.9707    9.0443    9.4984    9.5578    9.7044    9.8509
   10.0034   10.0909   10.2322   10.2824   10.3350   10.8245   10.8924   11.0870   11.2435   11.2751
   11.4145   11.4589   11.9905   12.1590   12.2218   12.5147   12.6348   12.9047   13.0162   13.1581
   13.4536   13.5434   13.6117   14.0473   14.1744   14.4002   14.7493   14.8323   14.9623   15.0696
   15.3220   15.7055   15.7879   15.7903   15.8147   16.5148   16.6346   16.7548   16.9185   17.1400
   17.2833   17.5739   17.7092   18.0136   18.4524   18.5865   18.7343   18.7685   18.8998   18.9065
   19.4632   19.6639   19.8046   20.2168   20.2328   20.2558   20.4392   20.7470   20.9782   20.9896
   21.0242   21.2057   21.5500   21.6397   22.0385   22.1068   22.3107   22.3599   22.8159   22.9158
   23.0763   23.1134   23.3469   23.6613   23.7068   23.8488   24.3888   25.4068   25.4292   25.6118
   26.0516   26.0777   26.0977   26.3716   27.3937   27.9637   28.6925   28.9028   29.6173   29.6772
   30.0233   30.1538   30.3443   31.1056   31.2504   31.4365   31.5879   32.4645   32.5337   32.9526
   33.3191   33.7826   33.9331   34.6224   35.4847   35.5789   35.7455   35.9234   36.1976   36.5977
   36.8411   37.5724   37.7690   37.8763   37.9260   38.6138   40.1221   40.6564   41.0097   42.4775
   42.7429   43.4928   44.1252   44.6052   45.6962   46.6871   50.7485   51.5424   52.3433   53.7599
   57.9646   58.6885   63.5787   68.6922   69.8452
   2  1  -16.2095  -15.5086  -15.4413  -14.7212  -14.6700  -14.4292  -13.9827  -13.3099  -11.9855  -11.5962
         -11.3944  -11.2334  -10.6562  -10.1849   -9.8988   -9.3445   -8.7451   -8.7103   -8.4931   -8.1075
   -7.9316   -7.6982   -7.2763   -7.1798   -6.8646   -6.5672   -6.5609   -6.4884   -6.2099   -6.0906
   -6.0468   -5.9820   -5.9704   -5.7606   -5.4076   -5.0632   -3.6734   -3.1671   -2.9555   -2.7547
   -2.6713   -2.5448   -2.4303   -2.1102   -1.9791   -1.7411   -1.7298   -1.2631   -1.2193   -1.1904
   -0.7280   -0.6917   -0.6393   -0.4666   -0.3778   -0.3680   -0.3125   -0.0650    0.2355    0.2529
    0.3392    1.0248    1.2049    1.2133    1.2955    1.7528    1.8167    1.9195    2.1036    2.3721
    2.4103    2.4153    2.5243    2.8215    3.0117    3.1357    3.2738    3.3681    3.4835    3.6244
    3.9548    4.0931    4.4068    4.4293    4.4667    4.7146    4.7177    4.8101    4.9495    4.9683
    5.0522    5.5389    5.5957    5.8082    6.1453    6.2002    6.3091    6.4062    6.4846    6.6193
    6.9790    7.0616    7.1007    7.1652    7.2857    7.4499    7.8890    8.2127    8.3425    8.3512
    8.5324    8.7484    8.9227    8.9610    8.9707    9.0443    9.4984    9.5578    9.7044    9.8509
   10.0034   10.0909   10.2322   10.2824   10.3350   10.8245   10.8924   11.0870   11.2435   11.2751
   11.4145   11.4589   11.9905   12.1590   12.2218   12.5147   12.6348   12.9047   13.0162   13.1581
   13.4536   13.5434   13.6117   14.0473   14.1744   14.4002   14.7493   14.8323   14.9623   15.0696
   15.3220   15.7055   15.7879   15.7903   15.8147   16.5148   16.6346   16.7548   16.9185   17.1400
   17.2833   17.5739   17.7092   18.0136   18.4524   18.5865   18.7343   18.7685   18.8998   18.9065
   19.4632   19.6639   19.8046   20.2168   20.2328   20.2558   20.4392   20.7470   20.9782   20.9896
   21.0242   21.2057   21.5500   21.6397   22.0385   22.1068   22.3107   22.3599   22.8159   22.9158
   23.0763   23.1134   23.3469   23.6613   23.7068   23.8488   24.3888   25.4068   25.4292   25.6118
   26.0516   26.0777   26.0977   26.3716   27.3937   27.9637   28.6925   28.9028   29.6173   29.6772
   30.0233   30.1538   30.3443   31.1056   31.2504   31.4365   31.5879   32.4645   32.5337   32.9526
   33.3191   33.7826   33.9331   34.6224   35.4847   35.5789   35.7455   35.9234   36.1976   36.5977
   36.8411   37.5724   37.7690   37.8763   37.9260   38.6138   40.1221   40.6564   41.0097   42.4775
   42.7429   43.4928   44.1252   44.6052   45.6962   46.6871   50.7485   51.5424   52.3433   53.7599
   57.9646   58.6885   63.5787   68.6922   69.8452
   3  1  -16.2095  -15.5086  -15.4413  -14.7212  -14.6700  -14.4292  -13.9827  -13.3099  -11.9855  -11.5962
         -11.3944  -11.2334  -10.6562  -10.1849   -9.8988   -9.3445   -8.7451   -8.7103   -8.4931   -8.1075
   -7.9316   -7.6982   -7.2763   -7.1798   -6.8646   -6.5672   -6.5609   -6.4884   -6.2099   -6.0906
   -6.0468   -5.9820   -5.9704   -5.7606   -5.4076   -5.0632   -3.6734   -3.1671   -2.9555   -2.7547
   -2.6713   -2.5448   -2.4303   -2.1102   -1.9791   -1.7411   -1.7298   -1.2631   -1.2193   -1.1904
   -0.7280   -0.6917   -0.6393   -0.4666   -0.3778   -0.3680   -0.3125   -0.0650    0.2355    0.2529
    0.3392    1.0248    1.2049    1.2133    1.2955    1.7528    1.8167    1.9195    2.1036    2.3721
    2.4103    2.4153    2.5243    2.8215    3.0117    3.1357    3.2738    3.3681    3.4835    3.6244
    3.9548    4.0931    4.4068    4.4293    4.4667    4.7146    4.7177    4.8101    4.9495    4.9683
    5.0522    5.5389    5.5957    5.8082    6.1453    6.2002    6.3091    6.4062    6.4846    6.6193
    6.9790    7.0616    7.1007    7.1652    7.2857    7.4499    7.8890    8.2127    8.3425    8.3512
    8.5324    8.7484    8.9227    8.9610    8.9707    9.0443    9.4984    9.5578    9.7044    9.8509
   10.0034   10.0909   10.2322   10.2824   10.3350   10.8245   10.8924   11.0870   11.2435   11.2751
   11.4145   11.4589   11.9905   12.1590   12.2218   12.5147   12.6348   12.9047   13.0162   13.1581
   13.4536   13.5434   13.6117   14.0473   14.1744   14.4002   14.7493   14.8323   14.9623   15.0696
   15.3220   15.7055   15.7879   15.7903   15.8147   16.5148   16.6346   16.7548   16.9185   17.1400
   17.2833   17.5739   17.7092   18.0136   18.4524   18.5865   18.7343   18.7685   18.8998   18.9065
   19.4632   19.6639   19.8046   20.2168   20.2328   20.2558   20.4392   20.7470   20.9782   20.9896
   21.0242   21.2057   21.5500   21.6397   22.0385   22.1068   22.3107   22.3599   22.8159   22.9158
   23.0763   23.1134   23.3469   23.6613   23.7068   23.8488   24.3888   25.4068   25.4292   25.6118
   26.0516   26.0777   26.0977   26.3716   27.3937   27.9637   28.6925   28.9028   29.6173   29.6772
   30.0233   30.1538   30.3443   31.1056   31.2504   31.4365   31.5879   32.4645   32.5337   32.9526
   33.3191   33.7826   33.9331   34.6224   35.4847   35.5789   35.7455   35.9234   36.1976   36.5977
   36.8411   37.5724   37.7690   37.8763   37.9260   38.6138   40.1221   40.6564   41.0097   42.4775
   42.7429   43.4928   44.1252   44.6052   45.6962   46.6871   50.7485   51.5424   52.3433   53.7599
   57.9646   58.6885   63.5787   68.6922   69.8452
   4  1  -16.2095  -15.5086  -15.4413  -14.7212  -14.6700  -14.4292  -13.9827  -13.3099  -11.9855  -11.5962
         -11.3944  -11.2334  -10.6562  -10.1849   -9.8988   -9.3445   -8.7451   -8.7103   -8.4931   -8.1075
   -7.9316   -7.6982   -7.2763   -7.1798   -6.8646   -6.5672   -6.5609   -6.4884   -6.2099   -6.0906
   -6.0468   -5.9820   -5.9704   -5.7606   -5.4076   -5.0632   -3.6734   -3.1671   -2.9555   -2.7547
   -2.6713   -2.5448   -2.4303   -2.1102   -1.9791   -1.7411   -1.7298   -1.2631   -1.2193   -1.1904
   -0.7280   -0.6917   -0.6393   -0.4666   -0.3778   -0.3680   -0.3125   -0.0650    0.2355    0.2529
    0.3392    1.0248    1.2049    1.2133    1.2955    1.7528    1.8167    1.9195    2.1036    2.3721
    2.4103    2.4153    2.5243    2.8215    3.0117    3.1357    3.2738    3.3681    3.4835    3.6244
    3.9548    4.0931    4.4068    4.4293    4.4667    4.7146    4.7177    4.8101    4.9495    4.9683
    5.0522    5.5389    5.5957    5.8082    6.1453    6.2002    6.3091    6.4062    6.4846    6.6193
    6.9790    7.0616    7.1007    7.1652    7.2857    7.4499    7.8890    8.2127    8.3425    8.3512
    8.5324    8.7484    8.9227    8.9610    8.9707    9.0443    9.4984    9.5578    9.7044    9.8509
   10.0034   10.0909   10.2322   10.2824   10.3350   10.8245   10.8924   11.0870   11.2435   11.2751
   11.4145   11.4589   11.9905   12.1590   12.2218   12.5147   12.6348   12.9047   13.0162   13.1581
   13.4536   13.5434   13.6117   14.0473   14.1744   14.4002   14.7493   14.8323   14.9623   15.0696
   15.3220   15.7055   15.7879   15.7903   15.8147   16.5148   16.6346   16.7548   16.9185   17.1400
   17.2833   17.5739   17.7092   18.0136   18.4524   18.5865   18.7343   18.7685   18.8998   18.9065
   19.4632   19.6639   19.8046   20.2168   20.2328   20.2558   20.4392   20.7470   20.9782   20.9896
   21.0242   21.2057   21.5500   21.6397   22.0385   22.1068   22.3107   22.3599   22.8159   22.9158
   23.0763   23.1134   23.3469   23.6613   23.7068   23.8488   24.3888   25.4068   25.4292   25.6118
   26.0516   26.0777   26.0977   26.3716   27.3937   27.9637   28.6925   28.9028   29.6173   29.6772
   30.0233   30.1538   30.3443   31.1056   31.2504   31.4365   31.5879   32.4645   32.5337   32.9526
   33.3191   33.7826   33.9331   34.6224   35.4847   35.5789   35.7455   35.9234   36.1976   36.5977
   36.8411   37.5724   37.7690   37.8763   37.9260   38.6138   40.1221   40.6564   41.0097   42.4775
   42.7429   43.4928   44.1252   44.6052   45.6962   46.6871   50.7485   51.5424   52.3433   53.7599
   57.9646   58.6885   63.5787   68.6922   69.8452
siesta: Fermi energy =      -4.374297 eV

siesta: Program's energy decomposition (eV):
siesta: Ebs     =      -683.446189
siesta: Eions   =      3092.503786
siesta: Ena     =       950.307489
siesta: Ekin    =       795.083780
siesta: Enl     =       159.448041
siesta: Eso     =         0.000000
siesta: Edftu   =         0.000000
siesta: DEna    =        -7.090557
siesta: DUscf   =         8.044099
siesta: DUext   =         0.000000
siesta: Exc     =      -591.186475
siesta: eta*DQ  =         0.000000
siesta: Emadel  =         0.000000
siesta: Emeta   =         0.000000
siesta: Emolmec =         0.000000
siesta: Ekinion =         0.000000
siesta: Eharris =     -1777.897409
siesta: Etot    =     -1777.897409
siesta: FreeEng =     -1777.897409

siesta: Final energy (eV):
siesta:  Band Struct. =    -683.446189
siesta:       Kinetic =     795.083780
siesta:       Hartree =   17861.947156
siesta:       Edftu   =       0.000000
siesta:       Eso     =       0.000000
siesta:    Ext. field =       0.000000
siesta:   Exch.-corr. =    -591.186475
siesta:  Ion-electron =  -36431.438654
siesta:       Ion-ion =   16587.696783
siesta:       Ekinion =       0.000000
siesta:         Total =   -1777.897409
siesta:         Fermi =      -4.374297

siesta: Atomic forces (eV/Ang):
siesta:      1   -0.004760   -0.000000    0.179476
siesta:      2   -0.006757    0.000000   -0.204561
siesta:      3   -0.003280   -0.081551   -0.386912
siesta:      4   -0.003280    0.081551   -0.386912
siesta:      5   -0.002398    0.311913    0.221164
siesta:      6   -0.007810   -0.020424    0.440940
siesta:      7   -0.007810    0.020424    0.440940
siesta:      8   -0.002398   -0.311913    0.221164
siesta:      9   -0.002847   -0.281119   -0.223390
siesta:     10   -0.002847    0.281119   -0.223390
siesta:     11    0.003626   -0.000000   -1.408075
siesta:     12   -0.003311    0.520642   -0.257504
siesta:     13   -0.003311   -0.520642   -0.257504
siesta:     14   -0.004323   -0.360520   -0.209029
siesta:     15   -0.004323    0.360520   -0.209029
siesta:     16    0.000300   -0.842094    0.184183
siesta:     17    2.708172    0.000000    0.739193
siesta:     18    0.000300    0.842094    0.184183
siesta:     19    0.001629    0.400302    0.030571
siesta:     20    0.001736    0.340607    0.122705
siesta:     21    0.001629   -0.400302    0.030571
siesta:     22    0.001736   -0.340607    0.122705
siesta:     23   -2.705836    0.000000    0.737304
siesta:     24    0.001390   -0.395466   -0.024158
siesta:     25    0.001390    0.395466   -0.024158
siesta:     26    0.000678    0.029361    0.071170
siesta:     27    0.000678   -0.029361    0.071170
siesta: ----------------------------------------
siesta:    Tot   -0.042027    0.000000   -0.017181

siesta: Stress tensor (static) (eV/Ang**3):
siesta:    -0.005528    0.000000    0.000001
siesta:     0.000000    0.000178    0.000000
siesta:     0.000001    0.000000   -0.000291

siesta: Cell volume =       5660.496885 Ang**3

siesta: Pressure (static):
siesta:                Solid            Molecule  Units
siesta:           0.00002048          0.00002446  Ry/Bohr**3
siesta:           0.00188033          0.00224618  eV/Ang**3
siesta:           3.01265473          3.59882009  kBar
(Free)E+ p_basis*V_orbitals  =       -1760.755407
(Free)Eharris+ p_basis*V_orbitals  =       -1760.755407

siesta: Electric dipole (a.u.)  =    0.000000    0.000000   -0.037500
siesta: Electric dipole (Debye) =    0.000000    0.000000   -0.095317

cite: Please see "sinw.bib" for an exhaustive BiBTeX file.
cite: Please clearly indicate Siesta version in published work: v4.1-b4-351
cite: This calculation has made use of the following articles
cite: which are encouraged to be cited in a published work.
        Primary SIESTA paper
          DOI: www.doi.org/10.1088/0953-8984/14/11/302

>> End of run:  22-JAN-2021  23:28:12
Job completed
