Siesta Version  : v4.1-b4-351
Architecture    : x86_64-linux-n-62-26-19
Compiler version: GNU Fortran (GCC) 9.3.0
Compiler flags  : mpifort -m64 -fPIC -O3 -march=native -ftree-vectorize -fexpensive-optimizatioons -funroll-loops -fprefetch-loop-arrays -fno-second-underscore  -flto
PP flags        : -I/dtu/sw/dcc/SL73/2020-aug/generic/build-tools/1.0/include -I/dtu/sw/dcc/SL773/2020-aug/generic/gcc/9.3.0/include -I/dtu/sw/dcc/SL73/2020-aug/generic/gcc/9.3.0/include -I/dtu/sw/dcc/SL73/2020-aug/XeonE5-2660v3/gnu/9.3.0/zlib/1.2.11/include -I/dtu/sw/dcc/SL73/2020-aug/generic/numactl/2.0.12/include -I/dtu/sw/dcc/SL73/2020-aug/XeonE5-2660v3/gnu/9.3.0/libxml2/2.9.10/include -I/dtu/sw/dcc/SL73/2020-aug/XeonE5-2660v3/gnu/9.3.0/hwloc/2.2.0/include -I/dtu/sw/dcc/SL73/2020-aug/XeonE5-2660v3/gnu/9.3.0/knem/1.1.4/include -I/dtu/sw/dcc/SL73/2020-aug/XeonE5-2660v3/gnu/9.3.0/ucx/1.8.1/include -I/dtu/sw/dcc/SL73/2020-aug/XeonE5-2660v3/gnu/9.3.0/openmpi/4.0.4/include -I/dtu/sw/dcc/SL73/2020-aug/XeonE5-2660v3/gnu/9.3.0/szip/2.1.1/include -I/dtu/sw/dcc/SL73/2020-aug/XeonE5-2660v3/gnu/9.3.0/hdf5/1.12.0/include -I/dtu/sw/dcc/SL73/2020-aug/XeonE5-2660v3/gnu/9.3.0/pnetcdf/1.12.1/include -I/dtu/sw/dcc/SL73/2020-aug/generic/gen-zlib/1.2.11/include -I/dtu/sw/dcc/SL73/2020-aug/generic/openssl/1.1.1/include -I/dtu/sw/dcc/SL73/2020-aug/generic/libssh2/1.8.2/include -I/dtu/sw/dcc/SL73/2020-aug/generic/curl/7.65.1/include -I/dtu/sw/dcc/SL73/2020-aug/XeonE5-2660v3/gnu/9.3.0/netcdf/4.7.4/include -I/dtu/sw/dcc/SL73/2020-aug/XeonE5-2660v3/gnu/9.3.0/flook/0.8.1/include -I/dtu/sw/dcc/SL73/2020-aug/XeonE5-2660v3/gnu/9.3.0/fftw/3.3.8/include -I/dtu/sw/dcc/SL73/2020-aug/XeonE5-2660v3/gnu/9.3.0/parmetis/4.0.3/include -I/dtu/sw/dcc/SL73/2020-aug/XeonE5-2660v3/gnu/9.3.0/scalapack/2.1.0/include -I/dtu/sw/dcc/SL73/2020-aug/XeonE5-2660v3/gnu/9.3.0/lapack/3.9.0/include -I/dtu/sw/dcc/SL73/2020-aug/XeonE5-2660v3/gnu/9.3.0/blis/0.7.0/include -I/dtu/sw/dcc/SL73/2020-aug/XeonE5-2660v3/gnu/9.3.0/scotch/6.0.9/include -I/dtu/sw/dcc/SL73/2020-aug/XeonE5-2660v3/gnu/9.3.0/mumps/5.3.3/include -I/dtu/sw/dcc/SL73/2020-aug/XeonE5-2660v3/gnu/9.3.0/elpa/2020.05.001/include -DSIESTA__ELPA -DMPI -DFC_HAVE_FLUSH -DFC_HAVE_ABORT -DCDF -DCDF4 -DSIESTA__FLOOK  -DNCDF -DNCDF_4 -DNCDF_PARALLEL -DTS_NOCHECKS -DSIESTA__METIS -DSIESTA__MUMPS -DSIESTA__MRRR -I/dtu/sw/dcc/SL73/2020-aug/XeonE5-2660v3/gnu/9.3.0/elpa/2020.05.001/include/elpa
Libraries       : libncdf.a libfdict.a -lnetcdff -lnetcdf -lpnetcdf -lhdf5_hl -lhdf5 -lz  -lzmuumps -lmumps_common -lesmumps -lscotch -lscotcherr -lpord -lparmetis -lmetis -lelpa -lscalapack -llapack -lblis  -L/dtu/sw/dcc/SL73/2020-aug/XeonE5-2660v3/gnu/9.3.0/flook/0.8.1/lib -Wl,-rpath=/dtu/sw/dcc/SL73/2020-aug/XeonE5-2660v3/gnu/9.3.0/flook/0.8.1/lib -lflookall -ldl  -flto -fuse-linker-plugin  -lmetis
PARALLEL version
NetCDF support
NetCDF-4 support
NetCDF-4 MPI-IO support
METIS ordering support
Lua support

* Running on 8 nodes in parallel
>> Start of run:  22-JAN-2021  21:11:32

                           ***********************       
                           *  WELCOME TO SIESTA  *       
                           ***********************       

reinit: Reading from ../SOC_Pt2_zy.fdf

reinit: -----------------------------------------------------------------------
reinit: System Name: Pt2 Z-alignment y
reinit: -----------------------------------------------------------------------
reinit: System Label: SOC_Pt2_zy
reinit: -----------------------------------------------------------------------

initatom: Reading input for the pseudopotentials and atomic orbitals ----------
Species number:   1 Atomic number:   78 Label: Pt_SOC

Ground state valence configuration:   6s01  5d09
Reading pseudopotential information in formatted form from Pt_SOC.psf

Pseudopotential generated from a relativistic atomic calculation

Valence configuration for pseudopotential generation:
6s( 1.00) rc: 2.24
6p( 0.00) rc: 2.73
5d( 9.00) rc: 1.24
5f( 0.00) rc: 2.98
For Pt_SOC, standard SIESTA heuristics set lmxkb to 3
 (one more than the basis l, including polarization orbitals).
Use PS.lmax or PS.KBprojectors blocks to override.
Pt_SOC: nkbl increased for l=1 due to the presence of a polarization orbital

<basis_specs>
===============================================================================
Pt_SOC               Z=  78    Mass=  195.08        Charge= 0.17977+309
Lmxo=2 Lmxkb= 3    BasisType=split      Semic=F
L=0  Nsemic=0  Cnfigmx=6
          i=1  nzeta=2  polorb=1  (6s)
            splnorm:   0.15000    
               vcte:    0.0000    
               rinn:    0.0000    
               qcoe:    0.0000    
               qyuk:    0.0000    
               qwid:   0.10000E-01
                rcs:    0.0000      0.0000    
            lambdas:    1.0000      1.0000    
L=1  Nsemic=0  Cnfigmx=6
L=2  Nsemic=0  Cnfigmx=5
          i=1  nzeta=2  polorb=0  (5d)
            splnorm:   0.15000    
               vcte:    0.0000    
               rinn:    0.0000    
               qcoe:    0.0000    
               qyuk:    0.0000    
               qwid:   0.10000E-01
                rcs:    0.0000      0.0000    
            lambdas:    1.0000      1.0000    
-------------------------------------------------------------------------------
L=0  Nkbl=1  erefs: 0.17977+309
L=1  Nkbl=1  erefs: 0.17977+309
L=2  Nkbl=1  erefs: 0.17977+309
L=3  Nkbl=1  erefs: 0.17977+309
===============================================================================
</basis_specs>

atom: Called for Pt_SOC                (Z =  78)

read_vps: Pseudopotential generation method:
read_vps: ATM 3.2.2 Troullier-Martins                       
Valence charge for ps generation:   10.00000

read_vps: Pseudopotential includes a core correction:
read_vps: Pseudo-core for xc-correction

xc_check: Exchange-correlation functional:
xc_check: GGA Perdew, Burke & Ernzerhof 1996
V l=0 = -2*Zval/r beyond r=  3.0596
V l=1 = -2*Zval/r beyond r=  3.0596
V l=2 = -2*Zval/r beyond r=  3.0596
V l=3 = -2*Zval/r beyond r=  3.0981
All V_l potentials equal beyond r=  2.9104
This should be close to max(r_c) in ps generation
All pots = -2*Zval/r beyond r=  3.0981

VLOCAL1: 99.0% of the norm of Vloc inside      5.125 Ry
VLOCAL1: 99.9% of the norm of Vloc inside     11.679 Ry
atom: Maximum radius for 4*pi*r*r*local-pseudopot. charge    3.51058
atom: Maximum radius for r*vlocal+2*Zval:    3.09807
GHOST: No ghost state for L =  0
GHOST: No ghost state for L =  1
GHOST: No ghost state for L =  2
GHOST: No ghost state for L =  3

KBgen: Kleinman-Bylander projectors: 
   l= 0   rc=  3.297886   el= -0.413885   Ekb=  4.454381   kbcos=  0.246717
   l= 1   rc=  3.381373   el= -0.063071   Ekb=  1.998299   kbcos=  0.230762
   l= 2   rc=  3.137044   el= -0.454162   Ekb= -5.116612   kbcos= -0.676172
   l= 3   rc=  3.599455   el=  0.003169   Ekb= -0.935521   kbcos= -0.024370

KBgen: Total number of  Kleinman-Bylander projectors:   16
atom: -------------------------------------------------------------------------

atom: SANKEY-TYPE ORBITALS:
atom: Selected multiple-zeta basis: split     

SPLIT: Orbitals with angular momentum L= 0

SPLIT: Basis orbitals for state 6s

SPLIT: PAO cut-off radius determined from an
SPLIT: energy shift=  0.007350 Ry

   izeta = 1
                 lambda =    1.000000
                     rc =    7.158402
                 energy =   -0.407576
                kinetic =    0.352573
    potential(screened) =   -0.760148
       potential(ionic) =   -7.385835

   izeta = 2
                 rmatch =    6.009165
              splitnorm =    0.150000
                 energy =   -0.341372
                kinetic =    0.579404
    potential(screened) =   -0.920777
       potential(ionic) =   -8.017759

SPLIT: Orbitals with angular momentum L= 2

SPLIT: Basis orbitals for state 5d

SPLIT: PAO cut-off radius determined from an
SPLIT: energy shift=  0.007350 Ry

   izeta = 1
                 lambda =    1.000000
                     rc =    5.044431
                 energy =   -0.446663
                kinetic =    4.610144
    potential(screened) =   -5.056807
       potential(ionic) =  -13.997492

   izeta = 2
                 rmatch =    3.021582
              splitnorm =    0.150000
                 energy =   -0.194009
                kinetic =    6.450170
    potential(screened) =   -6.644179
       potential(ionic) =  -16.245470

POLgen: Perturbative polarization orbital with L=  1

POLgen: Polarization orbital for state 6s

   izeta = 1
                     rc =    7.158402
                 energy =   -0.090110
                kinetic =    0.622430
    potential(screened) =   -0.712540
       potential(ionic) =   -6.949247
atom: Total number of Sankey-type orbitals: 15

atm_pop: Valence configuration (for local Pseudopot. screening):
 6s( 1.00)                                                            
 6p( 0.00)                                                            
 5d( 9.00)                                                            
Vna: chval, zval:   10.00000  10.00000

Vna:  Cut-off radius for the neutral-atom potential:   7.158402
comcore: Pseudo-core radius Rcore=  4.130025

atom: _________________________________________________________________________

prinput: Basis input ----------------------------------------------------------

PAO.BasisType split     

%block ChemicalSpeciesLabel
    1   78 Pt_SOC                  # Species index, atomic number, species label
%endblock ChemicalSpeciesLabel

%block PAO.Basis                 # Define Basis set
Pt_SOC                2                    # Species label, number of l-shells
 n=6   0   2 P   1                   # n, l, Nzeta, Polarization, NzetaPol
   7.158      6.009   
   1.000      1.000   
 n=5   2   2                         # n, l, Nzeta 
   5.044      3.022   
   1.000      1.000   
%endblock PAO.Basis

prinput: ----------------------------------------------------------------------

Dumping basis to NetCDF file Pt_SOC.ion.nc
coor:   Atomic-coordinates input format  =     Cartesian coordinates
coor:                                          (in Angstroms)

siesta: Atomic coordinates (Bohr) and species
siesta:      0.00000   0.00000  -2.26654  1        1
siesta:      0.00000   0.00000   2.26654  1        2

siesta: System type = molecule  

initatomlists: Number of atoms, orbitals, and projectors:      2    30    32

siesta: ******************** Simulation parameters ****************************
siesta:
siesta: The following are some of the parameters of the simulation.
siesta: A complete list of the parameters used, including default values,
siesta: can be found in file out.fdf
siesta:
redata: Spin configuration                          = spin-orbit
redata: Number of spin components                   = 8
redata: Time-Reversal Symmetry                      = F
redata: Spin spiral                                 = F
############################################################
This spin-orbit implementation uses a local approximation.
From 4.2 and onwards the full non-local approximation is implemented
You are strongly advised to use >=4.2 versions!
############################################################
redata: Long output                                 =   F
redata: Number of Atomic Species                    =        1
redata: Charge density info will appear in .RHO file
redata: Write Mulliken Pop.                         = Atomic and Orbital charges
redata: Matel table size (NRTAB)                    =     1024
redata: Mesh Cutoff                                 =   300.0000 Ry
redata: Net charge of the system                    =     0.0000 |e|
redata: Min. number of SCF Iter                     =        0
redata: Max. number of SCF Iter                     =     1000
redata: SCF convergence failure will abort job
redata: SCF mix quantity                            = Hamiltonian
redata: Mix DM or H after convergence               =   F
redata: Recompute H after scf cycle                 =   F
redata: Mix DM in first SCF step                    =   T
redata: Write Pulay info on disk                    =   F
redata: New DM Occupancy tolerance                  = 0.000000000001
redata: Kick with linear mixing every               =       50 iterations
redata: DM Mixing Weight for Kicks                  =     0.5000
redata: Require Harris convergence for SCF          =   F
redata: Harris energy tolerance for SCF             =     0.000100 eV
redata: Require DM convergence for SCF              =   T
redata: DM tolerance for SCF                        =     0.000010
redata: Require EDM convergence for SCF             =   F
redata: EDM tolerance for SCF                       =     0.001000 eV
redata: Require H convergence for SCF               =   T
redata: Hamiltonian tolerance for SCF               =     0.001000 eV
redata: Require (free) Energy convergence for SCF   =   F
redata: (free) Energy tolerance for SCF             =     0.000100 eV
redata: Using Saved Data (generic)                  =   F
redata: Use continuation files for DM               =   F
redata: Neglect nonoverlap interactions             =   F
redata: Method of Calculation                       = Diagonalization
redata: Electronic Temperature                      =   580.2219 K
redata: Fix the spin of the system                  =   F
redata: Dynamics option                             = Single-point calculation
mix.SCF: Pulay mixing                            = Pulay
mix.SCF:    Variant                              = stable
mix.SCF:    History steps                        = 5
mix.SCF:    Linear mixing weight                 =     0.010000
mix.SCF:    Mixing weight                        =     0.010000
mix.SCF:    SVD condition                        = 0.1000E-07
mix.SCF:    Restart steps                        = 49
mix.SCF:    Restart save steps                   = 1
mix.SCF:    Number of mixing iterations          = 49
mix.SCF:    Following mixer                      = Linear-Kick
mix.SCF: Linear mixing                           = Linear-Kick
mix.SCF:    Mixing weight                        =     0.500000
mix.SCF:    Number of mixing iterations          = 1
mix.SCF:    Following mixer                      = Pulay
mix.SCF: Spin-component mixing                   all
redata: Save all siesta data in one NC              =   F
redata: ***********************************************************************

%block SCF.Mixers
  Pulay
  Linear-Kick
%endblock SCF.Mixers

%block SCF.Mixer.Pulay
  # Mixing method
  method pulay
  variant stable

  # Mixing options
  weight 0.0100
  weight.linear 0.0100
  history 5
  restart 49
  restart.save 1

  # Continuation options
  iterations 49
  next Linear-Kick
%endblock SCF.Mixer.Pulay

%block SCF.Mixer.Linear-Kick
  # Mixing method
  method linear

  # Mixing options
  weight 0.5000

  # Continuation options
  iterations 1
  next Pulay
%endblock SCF.Mixer.Linear-Kick

DM_history_depth set to one: no extrapolation allowed by default for geometry relaxation
Size of DM history Fstack: 1
Total number of electrons:    20.000000
Total ionic charge:    20.000000

* ProcessorY, Blocksize:    2   4


* Orbital distribution balance (max,min):     4     2


Time-reversal symmetry not used.

siesta: k-grid: Number of k-points =     1
siesta: k-grid: Cutoff (effective) =    10.000 Ang
siesta: k-grid: Supercell and displacements
siesta: k-grid:    1   0   0      0.000
siesta: k-grid:    0   1   0      0.000
siesta: k-grid:    0   0   1      0.000

diag: Algorithm                                     = D&C
diag: Parallel over k                               =   F
diag: Use parallel 2D distribution                  =   T
diag: Parallel block-size                           = 4
diag: Parallel distribution                         =     2 x     4
diag: Used triangular part                          = Lower
diag: Absolute tolerance                            =  0.100E-15
diag: Orthogonalization factor                      =  0.100E-05
diag: Memory factor                                 =  1.0000


ts: **************************************************************
ts: Save H and S matrices                           =    F
ts: Save DM and EDM matrices                        =    F
ts: Only save the overlap matrix S                  =    F
ts: **************************************************************

************************ Begin: TS CHECKS AND WARNINGS ************************
************************ End: TS CHECKS AND WARNINGS **************************


                     ====================================
                        Single-point calculation
                     ====================================

outcoor: Atomic coordinates (Ang):                          
    0.00000000    0.00000000   -1.19940000   1       1  Pt_SOC
    0.00000000    0.00000000    1.19940000   1       2  Pt_SOC

outcell: Unit cell vectors (Ang):
       20.000000    0.000000    0.000000
        0.000000   20.000000    0.000000
        0.000000    0.000000   20.000000

outcell: Cell vector modules (Ang)   :   20.000000   20.000000   20.000000
outcell: Cell angles (23,13,12) (deg):     90.0000     90.0000     90.0000
outcell: Cell volume (Ang**3)        :   8000.0000
<dSpData1D:S at geom step 0
  <sparsity:sparsity for geom step 0
    nrows_g=30 nrows=4 sparsity=.1333 nnzs=120, refcount: 8>
  <dData1D:(new from dSpData1D) n=120, refcount: 1>
refcount: 1>
new_DM -- step:     1
Initializing Density Matrix...
DM filled with atomic data (user-defined):
<dSpData2D:DM initialized from atoms
  <sparsity:sparsity for geom step 0
    nrows_g=30 nrows=4 sparsity=.1333 nnzs=120, refcount: 9>
  <dData2D:DM n=120 m=8, refcount: 1>
refcount: 1>
     spin moment: S , {S} =    2.00000   0.00000   2.00000   0.00000
No. of atoms with KB's overlaping orbs in proc 0. Max # of overlaps:       2      30

Initializing spin-orbit part of the Hamiltonian
  Adding spin-orbit effects for Pt


New grid distribution:   1
           1       1:  108    1:   54    1:   27
           2       1:  108    1:   54   28:   54
           3       1:  108    1:   54   55:   81
           4       1:  108    1:   54   82:  108
           5       1:  108   55:  108    1:   27
           6       1:  108   55:  108   28:   54
           7       1:  108   55:  108   55:   81
           8       1:  108   55:  108   82:  108

InitMesh: MESH =   216 x   216 x   216 =    10077696
InitMesh: (bp) =   108 x   108 x   108 =     1259712
InitMesh: Mesh cutoff (required, used) =   300.000   322.366 Ry
ExtMesh (bp) on 0 =   192 x   138 x   111 =     2941056
New grid distribution:   2
           1      47:  108   45:  108    1:   47
           2      42:  108    1:   44    1:   47
           3      46:  108    1:   46   48:  108
           4       1:   45    1:   46   48:  108
           5       1:   46   45:  108    1:   47
           6       1:   41    1:   44    1:   47
           7      48:  108   47:  108   48:  108
           8       1:   47   47:  108   48:  108
New grid distribution:   3
           1      40:  108   34:  108    1:   44
           2      22:  108    1:   33    1:   44
           3      37:  108    1:   40   45:  108
           4       1:   36    1:   40   45:  108
           5       1:   39   34:  108    1:   44
           6       1:   21    1:   33    1:   44
           7      44:  108   41:  108   45:  108
           8       1:   43   41:  108   45:  108
Setting up quadratic distribution...
ExtMesh (bp) on 0 =   146 x   148 x   131 =     2830648
PhiOnMesh: Number of (b)points on node 0 =               186496
PhiOnMesh: nlist on node 0 =                62558

stepf: Fermi-Dirac step function

siesta: Program's energy decomposition (eV):
siesta: Ebs     =      -169.462473
siesta: Eions   =      1671.574203
siesta: Ena     =        29.270178
siesta: Ekin    =      1013.906478
siesta: Enl     =      -503.377066
siesta: Eso     =        -1.481185
siesta: Edftu   =         0.000000
siesta: DEna    =        18.327200
siesta: DUscf   =         6.863915
siesta: DUext   =         0.000000
siesta: Exc     =     -1693.282187
siesta: eta*DQ  =         0.000000
siesta: Emadel  =         0.000000
siesta: Emeta   =         0.000000
siesta: Emolmec =         0.000000
siesta: Ekinion =         0.000000
siesta: Eharris =     -2796.963783
siesta: Etot    =     -2801.346869
siesta: FreeEng =     -2801.349418

        iscf     Eharris(eV)        E_KS(eV)     FreeEng(eV)     dDmax    Ef(eV) dHmax(eV)
   scf:    1    -2796.963783    -2801.346869    -2801.349418  0.528120 -3.047245  6.558476
     spin moment: S , {S} =    1.22091   0.00000   1.22091   0.00000
timer: Routine,Calls,Time,% = IterSCF        1       3.259  64.28
   scf:    2    -2801.613775    -2801.480870    -2801.483655  0.012557 -3.092346  6.378930
     spin moment: S , {S} =    1.22182  -0.00000   1.22182  -0.00000
   scf:    3    -2805.336975    -2804.453637    -2804.554760  0.454585 -4.507689  0.938277
     spin moment: S , {S} =    1.19688  -0.00000   1.19688   0.00000
   scf:    4    -2803.574509    -2804.118797    -2804.170272  0.109493 -4.123524  1.327167
     spin moment: S , {S} =    1.23346  -0.00000   1.23346   0.00000
   scf:    5    -2804.290047    -2804.376293    -2804.477799  0.150040 -4.809369  1.805006
     spin moment: S , {S} =    1.22566  -0.00000   1.22566  -0.00000
   scf:    6    -2800.573508    -2803.268754    -2803.428056  0.317380 -3.553430  3.891503
     spin moment: S , {S} =    1.54238  -0.00000   1.54238   0.00000
   scf:    7    -2804.949608    -2804.498645    -2804.636788  0.258564 -4.178183  0.142383
     spin moment: S , {S} =    1.03715  -0.00000   1.03715   0.00000
   scf:    8    -2804.474482    -2804.487447    -2804.627440  0.010888 -4.108705  0.270769
     spin moment: S , {S} =    1.01585   0.00000   1.01585   0.00000
   scf:    9    -2804.478363    -2804.482949    -2804.622787  0.009222 -4.070514  0.367891
     spin moment: S , {S} =    0.95448  -0.00000   0.95448   0.00000
   scf:   10    -2804.468322    -2804.511691    -2804.625876  0.064701 -4.357090  0.528006
     spin moment: S , {S} =    1.04817  -0.00000   1.04817   0.00000
   scf:   11    -2804.523745    -2804.523719    -2804.651282  0.027030 -4.204345  0.069166
     spin moment: S , {S} =    0.98497  -0.00000   0.98497   0.00000
   scf:   12    -2804.521930    -2804.523780    -2804.646910  0.007661 -4.201035  0.063386
     spin moment: S , {S} =    0.99399  -0.00000   0.99399   0.00000
   scf:   13    -2804.420388    -2804.491090    -2804.629616  0.041761 -4.151910  0.123255
     spin moment: S , {S} =    0.87715   0.00000   0.87715   0.00000
   scf:   14    -2804.535790    -2804.523798    -2804.652736  0.029702 -4.187676  0.019991
     spin moment: S , {S} =    0.93784  -0.00000   0.93784   0.00000
   scf:   15    -2804.513993    -2804.519683    -2804.652056  0.008773 -4.179438  0.031321
     spin moment: S , {S} =    0.90171  -0.00000   0.90171   0.00000
   scf:   16    -2804.525792    -2804.523286    -2804.652940  0.007115 -4.186166  0.021447
     spin moment: S , {S} =    0.93201  -0.00000   0.93201   0.00000
   scf:   17    -2804.523389    -2804.523337    -2804.652958  0.000161 -4.186249  0.021399
     spin moment: S , {S} =    0.93117  -0.00000   0.93117   0.00000
   scf:   18    -2804.523544    -2804.523436    -2804.653068  0.000930 -4.186483  0.021438
     spin moment: S , {S} =    0.92666  -0.00000   0.92666   0.00000
   scf:   19    -2804.524046    -2804.523729    -2804.653282  0.001799 -4.188023  0.021344
     spin moment: S , {S} =    0.91833  -0.00000   0.91833   0.00000
   scf:   20    -2804.524106    -2804.523908    -2804.653471  0.001597 -4.189119  0.021479
     spin moment: S , {S} =    0.91121   0.00000   0.91121   0.00000
   scf:   21    -2804.524001    -2804.523953    -2804.653521  0.000432 -4.189371  0.021551
     spin moment: S , {S} =    0.90954   0.00000   0.90954   0.00000
   scf:   22    -2804.524496    -2804.524218    -2804.653682  0.001355 -4.190437  0.021637
     spin moment: S , {S} =    0.90539  -0.00000   0.90539   0.00000
   scf:   23    -2804.524316    -2804.524267    -2804.653710  0.000233 -4.190728  0.021663
     spin moment: S , {S} =    0.90532  -0.00000   0.90532   0.00000
   scf:   24    -2804.524391    -2804.524329    -2804.653753  0.000415 -4.191155  0.021769
     spin moment: S , {S} =    0.90590  -0.00000   0.90590   0.00000
   scf:   25    -2804.524289    -2804.524310    -2804.653753  0.000161 -4.190975  0.021869
     spin moment: S , {S} =    0.90685  -0.00000   0.90685   0.00000
   scf:   26    -2804.524374    -2804.524342    -2804.653768  0.000121 -4.191028  0.021872
     spin moment: S , {S} =    0.90672  -0.00000   0.90672   0.00000
   scf:   27    -2804.524430    -2804.524385    -2804.653800  0.000259 -4.191174  0.021894
     spin moment: S , {S} =    0.90584   0.00000   0.90584   0.00000
   scf:   28    -2804.524492    -2804.524438    -2804.653847  0.000371 -4.191372  0.021945
     spin moment: S , {S} =    0.90448  -0.00000   0.90448   0.00000
   scf:   29    -2804.524338    -2804.524389    -2804.653811  0.000289 -4.191203  0.021912
     spin moment: S , {S} =    0.90552  -0.00000   0.90552   0.00000
   scf:   30    -2804.524369    -2804.524379    -2804.653805  0.000042 -4.191164  0.021913
     spin moment: S , {S} =    0.90568  -0.00000   0.90568   0.00000
   scf:   31    -2804.524342    -2804.524361    -2804.653800  0.000051 -4.191040  0.021948
     spin moment: S , {S} =    0.90615  -0.00000   0.90615   0.00000
   scf:   32    -2804.524302    -2804.524331    -2804.653786  0.000111 -4.190987  0.021943
     spin moment: S , {S} =    0.90624  -0.00000   0.90624   0.00000
   scf:   33    -2804.524377    -2804.524354    -2804.653802  0.000133 -4.191066  0.021958
     spin moment: S , {S} =    0.90585  -0.00000   0.90585   0.00000
   scf:   34    -2804.524127    -2804.524240    -2804.653704  0.000794 -4.190619  0.021832
     spin moment: S , {S} =    0.90836  -0.00000   0.90836   0.00000
   scf:   35    -2804.524095    -2804.524167    -2804.653654  0.000419 -4.190370  0.021765
     spin moment: S , {S} =    0.90951  -0.00000   0.90951   0.00000
   scf:   36    -2804.523988    -2804.524078    -2804.653611  0.000355 -4.190035  0.021751
     spin moment: S , {S} =    0.91055  -0.00000   0.91055   0.00000
   scf:   37    -2804.524052    -2804.524065    -2804.653609  0.000030 -4.189956  0.021766
     spin moment: S , {S} =    0.91069  -0.00000   0.91069   0.00000
   scf:   38    -2804.524200    -2804.524132    -2804.653644  0.000285 -4.190128  0.021742
     spin moment: S , {S} =    0.90997  -0.00000   0.90997   0.00000
   scf:   39    -2804.524204    -2804.524168    -2804.653672  0.000224 -4.190270  0.021759
     spin moment: S , {S} =    0.90923  -0.00000   0.90923   0.00000
   scf:   40    -2804.524371    -2804.524267    -2804.653759  0.000713 -4.190680  0.021863
     spin moment: S , {S} =    0.90689  -0.00000   0.90689   0.00000
   scf:   41    -2804.524111    -2804.524189    -2804.653705  0.000440 -4.190423  0.021789
     spin moment: S , {S} =    0.90809  -0.00000   0.90809   0.00000
   scf:   42    -2804.524194    -2804.524191    -2804.653706  0.000008 -4.190433  0.021789
     spin moment: S , {S} =    0.90805  -0.00000   0.90805   0.00000
   scf:   43    -2804.524281    -2804.524235    -2804.653714  0.000233 -4.190964  0.021598
     spin moment: S , {S} =    0.90652  -0.00000   0.90652   0.00000
   scf:   44    -2804.524131    -2804.524183    -2804.653689  0.000209 -4.190891  0.021573
     spin moment: S , {S} =    0.90672  -0.00000   0.90672   0.00000
   scf:   45    -2804.523768    -2804.523972    -2804.653531  0.001345 -4.190153  0.021380
     spin moment: S , {S} =    0.91042  -0.00000   0.91042   0.00000
   scf:   46    -2804.523796    -2804.523883    -2804.653455  0.000678 -4.189832  0.021233
     spin moment: S , {S} =    0.91217  -0.00000   0.91217   0.00000
   scf:   47    -2804.522896    -2804.523353    -2804.653136  0.003392 -4.188693  0.020069
     spin moment: S , {S} =    0.91550   0.00000   0.91550   0.00000
   scf:   48    -2804.523208    -2804.523280    -2804.653113  0.000348 -4.188533  0.019952
     spin moment: S , {S} =    0.91541   0.00000   0.91541   0.00000
   scf:   49    -2804.523122    -2804.523202    -2804.653128  0.000244 -4.188229  0.019908
     spin moment: S , {S} =    0.91454   0.00000   0.91454   0.00000
mix: Pulay -- resetting history
mix: switching mixer --> Linear-Kick
   scf:   50    -2804.523328    -2804.523265    -2804.653166  0.000352 -4.188517  0.019830
     spin moment: S , {S} =    0.91330   0.00000   0.91330   0.00000
mix: switching mixer --> Pulay
   scf:   51    -2804.524251    -2804.523656    -2804.653899  0.007307 -4.192324  0.020915
     spin moment: S , {S} =    0.88687   0.00000   0.88687   0.00000
   scf:   52    -2804.523129    -2804.523355    -2804.653412  0.004824 -4.189759  0.020247
     spin moment: S , {S} =    0.90438   0.00000   0.90438   0.00000
   scf:   53    -2804.524766    -2804.524017    -2804.653842  0.003969 -4.191800  0.020477
     spin moment: S , {S} =    0.89295   0.00000   0.89295   0.00000
   scf:   54    -2804.522904    -2804.523454    -2804.653614  0.001980 -4.190828  0.020427
     spin moment: S , {S} =    0.89647   0.00000   0.89647   0.00000
   scf:   55    -2804.522092    -2804.522662    -2804.653050  0.006518 -4.187520  0.018912
     spin moment: S , {S} =    0.90902   0.00000   0.90902   0.00000
   scf:   56    -2804.522486    -2804.522573    -2804.652970  0.000568 -4.186281  0.019691
     spin moment: S , {S} =    0.91440   0.00000   0.91440   0.00000
   scf:   57    -2804.523671    -2804.522675    -2804.653587  0.011857 -4.202635  0.009868
     spin moment: S , {S} =    0.84358   0.00000   0.84358  -0.00000
   scf:   58    -2804.522736    -2804.522698    -2804.653649  0.001461 -4.203901  0.009777
     spin moment: S , {S} =    0.83714   0.00000   0.83714  -0.00000
   scf:   59    -2804.522620    -2804.522649    -2804.653733  0.001366 -4.205741  0.009214
     spin moment: S , {S} =    0.82613   0.00000   0.82613  -0.00000
   scf:   60    -2804.522614    -2804.522629    -2804.653735  0.000754 -4.205952  0.008800
     spin moment: S , {S} =    0.82458   0.00000   0.82458  -0.00000
   scf:   61    -2804.522677    -2804.522652    -2804.653736  0.000364 -4.205896  0.008533
     spin moment: S , {S} =    0.82432   0.00000   0.82432  -0.00000
   scf:   62    -2804.522742    -2804.522694    -2804.653734  0.000968 -4.205140  0.009062
     spin moment: S , {S} =    0.82715   0.00000   0.82715  -0.00000
   scf:   63    -2804.522635    -2804.522665    -2804.653716  0.000346 -4.204259  0.009387
     spin moment: S , {S} =    0.83064   0.00000   0.83064  -0.00000
   scf:   64    -2804.522618    -2804.522640    -2804.653696  0.000810 -4.203735  0.009286
     spin moment: S , {S} =    0.83282   0.00000   0.83282  -0.00000
   scf:   65    -2804.522666    -2804.522653    -2804.653689  0.000205 -4.203507  0.009350
     spin moment: S , {S} =    0.83422   0.00000   0.83422  -0.00000
   scf:   66    -2804.522699    -2804.522673    -2804.653699  0.000784 -4.203496  0.009777
     spin moment: S , {S} =    0.83480   0.00000   0.83480  -0.00000
   scf:   67    -2804.522624    -2804.522648    -2804.653715  0.000209 -4.203924  0.009737
     spin moment: S , {S} =    0.83313   0.00000   0.83313  -0.00000
   scf:   68    -2804.522634    -2804.522640    -2804.653723  0.000459 -4.204253  0.009474
     spin moment: S , {S} =    0.83164   0.00000   0.83164  -0.00000
   scf:   69    -2804.522761    -2804.522693    -2804.653778  0.000913 -4.205759  0.008714
     spin moment: S , {S} =    0.82465   0.00000   0.82465  -0.00000
   scf:   70    -2804.522713    -2804.522702    -2804.653794  0.000345 -4.206027  0.008705
     spin moment: S , {S} =    0.82318   0.00000   0.82318  -0.00000
   scf:   71    -2804.522677    -2804.522684    -2804.653844  0.000641 -4.206708  0.008490
     spin moment: S , {S} =    0.81799   0.00000   0.81799  -0.00000
   scf:   72    -2804.522683    -2804.522681    -2804.653866  0.000427 -4.207018  0.008257
     spin moment: S , {S} =    0.81554   0.00000   0.81554  -0.00000
   scf:   73    -2804.522793    -2804.522727    -2804.653944  0.001401 -4.207747  0.008289
     spin moment: S , {S} =    0.80956   0.00000   0.80956  -0.00000
   scf:   74    -2804.522750    -2804.522737    -2804.653963  0.000429 -4.207834  0.008429
     spin moment: S , {S} =    0.80870   0.00000   0.80870  -0.00000
   scf:   75    -2804.522739    -2804.522735    -2804.653999  0.000497 -4.207950  0.008588
     spin moment: S , {S} =    0.80720   0.00000   0.80720  -0.00000
   scf:   76    -2804.522741    -2804.522738    -2804.654001  0.000057 -4.207964  0.008574
     spin moment: S , {S} =    0.80713   0.00000   0.80713  -0.00000
   scf:   77    -2804.522632    -2804.522686    -2804.653980  0.000631 -4.207847  0.008665
     spin moment: S , {S} =    0.80724   0.00000   0.80724  -0.00000
   scf:   78    -2804.522687    -2804.522687    -2804.653981  0.000019 -4.207866  0.008666
     spin moment: S , {S} =    0.80715   0.00000   0.80715  -0.00000
   scf:   79    -2804.522680    -2804.522682    -2804.653997  0.000222 -4.208230  0.008544
     spin moment: S , {S} =    0.80503   0.00000   0.80503  -0.00000
   scf:   80    -2804.522663    -2804.522672    -2804.653995  0.000291 -4.208467  0.008353
     spin moment: S , {S} =    0.80382   0.00000   0.80382  -0.00000
   scf:   81    -2804.522661    -2804.522667    -2804.653990  0.000265 -4.208671  0.008290
     spin moment: S , {S} =    0.80303   0.00000   0.80303  -0.00000
   scf:   82    -2804.522605    -2804.522635    -2804.653993  0.000811 -4.209002  0.008495
     spin moment: S , {S} =    0.80114   0.00000   0.80114  -0.00000
   scf:   83    -2804.522615    -2804.522625    -2804.653996  0.000112 -4.209117  0.008479
     spin moment: S , {S} =    0.80038   0.00000   0.80038  -0.00000
   scf:   84    -2804.522637    -2804.522626    -2804.654026  0.000705 -4.209667  0.008242
     spin moment: S , {S} =    0.79733   0.00000   0.79733  -0.00000
   scf:   85    -2804.522656    -2804.522640    -2804.654039  0.000198 -4.209805  0.008281
     spin moment: S , {S} =    0.79674   0.00000   0.79674  -0.00000
   scf:   86    -2804.522674    -2804.522654    -2804.654070  0.000496 -4.210101  0.008373
     spin moment: S , {S} =    0.79491   0.00000   0.79491  -0.00000
   scf:   87    -2804.522658    -2804.522657    -2804.654066  0.000162 -4.210069  0.008424
     spin moment: S , {S} =    0.79525   0.00000   0.79525  -0.00000
   scf:   88    -2804.522690    -2804.522671    -2804.654064  0.000434 -4.209904  0.008305
     spin moment: S , {S} =    0.79623   0.00000   0.79623  -0.00000
   scf:   89    -2804.522649    -2804.522660    -2804.654069  0.000169 -4.210056  0.008294
     spin moment: S , {S} =    0.79519   0.00000   0.79519  -0.00000
   scf:   90    -2804.522654    -2804.522658    -2804.654058  0.000235 -4.209859  0.008375
     spin moment: S , {S} =    0.79630   0.00000   0.79630  -0.00000
   scf:   91    -2804.522698    -2804.522676    -2804.654075  0.000255 -4.210041  0.008421
     spin moment: S , {S} =    0.79547   0.00000   0.79547  -0.00000
   scf:   92    -2804.522654    -2804.522666    -2804.654056  0.000305 -4.209875  0.008356
     spin moment: S , {S} =    0.79653   0.00000   0.79653  -0.00000
   scf:   93    -2804.522668    -2804.522666    -2804.654058  0.000061 -4.209878  0.008346
     spin moment: S , {S} =    0.79645   0.00000   0.79645  -0.00000
   scf:   94    -2804.522569    -2804.522616    -2804.654057  0.000927 -4.210367  0.008441
     spin moment: S , {S} =    0.79363   0.00000   0.79363  -0.00000
   scf:   95    -2804.522603    -2804.522610    -2804.654058  0.000055 -4.210451  0.008412
     spin moment: S , {S} =    0.79310   0.00000   0.79310  -0.00000
   scf:   96    -2804.522509    -2804.522544    -2804.654105  0.001817 -4.212306  0.007425
     spin moment: S , {S} =    0.78202   0.00000   0.78202  -0.00000
   scf:   97    -2804.522542    -2804.522541    -2804.654124  0.000353 -4.212886  0.007283
     spin moment: S , {S} =    0.77883   0.00000   0.77883  -0.00000
   scf:   98    -2804.522527    -2804.522530    -2804.654157  0.000578 -4.213530  0.007187
     spin moment: S , {S} =    0.77465   0.00000   0.77465  -0.00000
   scf:   99    -2804.522532    -2804.522531    -2804.654157  0.000044 -4.213540  0.007202
     spin moment: S , {S} =    0.77461   0.00000   0.77461  -0.00000
mix: Pulay -- resetting history
mix: switching mixer --> Linear-Kick
   scf:  100    -2804.522539    -2804.522533    -2804.654183  0.000809 -4.213923  0.007335
     spin moment: S , {S} =    0.77197   0.00000   0.77197  -0.00000
mix: switching mixer --> Pulay
   scf:  101    -2804.523570    -2804.522943    -2804.654574  0.004758 -4.214275  0.008780
     spin moment: S , {S} =    0.76331   0.00000   0.76331  -0.00000
   scf:  102    -2804.522257    -2804.522529    -2804.654155  0.004813 -4.213529  0.007193
     spin moment: S , {S} =    0.77470   0.00000   0.77470  -0.00000
   scf:  103    -2804.522427    -2804.522472    -2804.654100  0.001847 -4.212898  0.007002
     spin moment: S , {S} =    0.77870   0.00000   0.77870  -0.00000
   scf:  104    -2804.522687    -2804.522551    -2804.654178  0.002142 -4.212357  0.008264
     spin moment: S , {S} =    0.77842   0.00000   0.77842  -0.00000
   scf:  105    -2804.522477    -2804.522516    -2804.654149  0.000496 -4.212316  0.008035
     spin moment: S , {S} =    0.77957   0.00000   0.77957  -0.00000
   scf:  106    -2804.522575    -2804.522546    -2804.654142  0.000395 -4.212753  0.007756
     spin moment: S , {S} =    0.77767   0.00000   0.77767  -0.00000
   scf:  107    -2804.522564    -2804.522555    -2804.654142  0.000139 -4.212784  0.007781
     spin moment: S , {S} =    0.77759   0.00000   0.77759  -0.00000
   scf:  108    -2804.522414    -2804.522482    -2804.654056  0.001496 -4.211825  0.007450
     spin moment: S , {S} =    0.78355  -0.00000   0.78355  -0.00000
   scf:  109    -2804.522474    -2804.522479    -2804.654050  0.000119 -4.211794  0.007388
     spin moment: S , {S} =    0.78375  -0.00000   0.78375  -0.00000
   scf:  110    -2804.522251    -2804.522326    -2804.653953  0.003495 -4.210695  0.007131
     spin moment: S , {S} =    0.78824  -0.00000   0.78824   0.00000
   scf:  111    -2804.522325    -2804.522325    -2804.653953  0.000023 -4.210699  0.007121
     spin moment: S , {S} =    0.78817  -0.00000   0.78817   0.00000
   scf:  112    -2804.522170    -2804.522207    -2804.653931  0.003474 -4.209650  0.006195
     spin moment: S , {S} =    0.78910  -0.00000   0.78910   0.00000
   scf:  113    -2804.522191    -2804.522199    -2804.653931  0.000068 -4.209644  0.006153
     spin moment: S , {S} =    0.78888  -0.00000   0.78888   0.00000
   scf:  114    -2804.522140    -2804.522167    -2804.653945  0.001132 -4.210083  0.005863
     spin moment: S , {S} =    0.78521  -0.00000   0.78521   0.00000
   scf:  115    -2804.522238    -2804.522196    -2804.653986  0.000992 -4.210709  0.006282
     spin moment: S , {S} =    0.78189  -0.00000   0.78189   0.00000
   scf:  116    -2804.522193    -2804.522194    -2804.653989  0.000085 -4.210763  0.006296
     spin moment: S , {S} =    0.78153  -0.00000   0.78153   0.00000
   scf:  117    -2804.522114    -2804.522149    -2804.654018  0.001361 -4.211225  0.006212
     spin moment: S , {S} =    0.77796  -0.00000   0.77796   0.00000
   scf:  118    -2804.522117    -2804.522133    -2804.654009  0.000623 -4.211017  0.006271
     spin moment: S , {S} =    0.77872  -0.00000   0.77872   0.00000
   scf:  119    -2804.522143    -2804.522137    -2804.654012  0.000240 -4.211091  0.006236
     spin moment: S , {S} =    0.77840  -0.00000   0.77840   0.00000
   scf:  120    -2804.522159    -2804.522147    -2804.654016  0.000201 -4.211102  0.006356
     spin moment: S , {S} =    0.77862  -0.00000   0.77862   0.00000
   scf:  121    -2804.522093    -2804.522121    -2804.653985  0.000732 -4.210718  0.006019
     spin moment: S , {S} =    0.78058  -0.00000   0.78058   0.00000
   scf:  122    -2804.522119    -2804.522120    -2804.653975  0.000211 -4.210571  0.005949
     spin moment: S , {S} =    0.78151  -0.00000   0.78151   0.00000
   scf:  123    -2804.522131    -2804.522126    -2804.653966  0.000308 -4.210423  0.005931
     spin moment: S , {S} =    0.78260  -0.00000   0.78260   0.00000
   scf:  124    -2804.522047    -2804.522088    -2804.653956  0.000310 -4.210223  0.005834
     spin moment: S , {S} =    0.78335  -0.00000   0.78335   0.00000
   scf:  125    -2804.522096    -2804.522092    -2804.653957  0.000046 -4.210252  0.005839
     spin moment: S , {S} =    0.78322  -0.00000   0.78322   0.00000
   scf:  126    -2804.522091    -2804.522092    -2804.653957  0.000014 -4.210259  0.005833
     spin moment: S , {S} =    0.78319  -0.00000   0.78319   0.00000
   scf:  127    -2804.522092    -2804.522092    -2804.653955  0.000119 -4.210285  0.005797
     spin moment: S , {S} =    0.78338  -0.00000   0.78338   0.00000
   scf:  128    -2804.522118    -2804.522105    -2804.653954  0.000248 -4.210282  0.005861
     spin moment: S , {S} =    0.78393  -0.00000   0.78393   0.00000
   scf:  129    -2804.522110    -2804.522107    -2804.653956  0.000057 -4.210318  0.005892
     spin moment: S , {S} =    0.78381  -0.00000   0.78381   0.00000
   scf:  130    -2804.522125    -2804.522112    -2804.653990  0.000723 -4.210884  0.006182
     spin moment: S , {S} =    0.78086  -0.00000   0.78086   0.00000
   scf:  131    -2804.522108    -2804.522110    -2804.653987  0.000089 -4.210867  0.006132
     spin moment: S , {S} =    0.78091  -0.00000   0.78091   0.00000
   scf:  132    -2804.522115    -2804.522112    -2804.653988  0.000032 -4.210861  0.006148
     spin moment: S , {S} =    0.78094  -0.00000   0.78094   0.00000
   scf:  133    -2804.522102    -2804.522108    -2804.653985  0.000085 -4.210854  0.006117
     spin moment: S , {S} =    0.78107  -0.00000   0.78107   0.00000
   scf:  134    -2804.522122    -2804.522115    -2804.653986  0.000089 -4.210877  0.006146
     spin moment: S , {S} =    0.78124  -0.00000   0.78124   0.00000
   scf:  135    -2804.522120    -2804.522117    -2804.653987  0.000038 -4.210914  0.006165
     spin moment: S , {S} =    0.78112  -0.00000   0.78112   0.00000
   scf:  136    -2804.522127    -2804.522121    -2804.654004  0.000310 -4.211207  0.006275
     spin moment: S , {S} =    0.77964  -0.00000   0.77964   0.00000
   scf:  137    -2804.522119    -2804.522120    -2804.654001  0.000080 -4.211183  0.006231
     spin moment: S , {S} =    0.77973  -0.00000   0.77973   0.00000
   scf:  138    -2804.522115    -2804.522118    -2804.653999  0.000056 -4.211182  0.006201
     spin moment: S , {S} =    0.77974  -0.00000   0.77974   0.00000
   scf:  139    -2804.522078    -2804.522100    -2804.653987  0.000436 -4.211148  0.006012
     spin moment: S , {S} =    0.78035  -0.00000   0.78035   0.00000
   scf:  140    -2804.522144    -2804.522122    -2804.653988  0.000301 -4.211349  0.006094
     spin moment: S , {S} =    0.78073  -0.00000   0.78073   0.00000
   scf:  141    -2804.522139    -2804.522130    -2804.653999  0.000203 -4.211631  0.006184
     spin moment: S , {S} =    0.77976  -0.00000   0.77976   0.00000
   scf:  142    -2804.522128    -2804.522124    -2804.654043  0.000940 -4.212587  0.006426
     spin moment: S , {S} =    0.77516  -0.00000   0.77516   0.00000
   scf:  143    -2804.522103    -2804.522113    -2804.654054  0.000236 -4.212793  0.006550
     spin moment: S , {S} =    0.77438  -0.00000   0.77438   0.00000
   scf:  144    -2804.522121    -2804.522116    -2804.654062  0.000199 -4.212864  0.006661
     spin moment: S , {S} =    0.77414  -0.00000   0.77414   0.00000
   scf:  145    -2804.522113    -2804.522115    -2804.654061  0.000022 -4.212866  0.006651
     spin moment: S , {S} =    0.77415  -0.00000   0.77415   0.00000
   scf:  146    -2804.522051    -2804.522085    -2804.654058  0.000305 -4.213153  0.006573
     spin moment: S , {S} =    0.77370  -0.00000   0.77370   0.00000
   scf:  147    -2804.522078    -2804.522081    -2804.654073  0.000317 -4.213530  0.006650
     spin moment: S , {S} =    0.77208  -0.00000   0.77208   0.00000
   scf:  148    -2804.522071    -2804.522075    -2804.654088  0.000345 -4.213919  0.006728
     spin moment: S , {S} =    0.77035  -0.00000   0.77035   0.00000
   scf:  149    -2804.522002    -2804.522039    -2804.654099  0.000319 -4.214291  0.006838
     spin moment: S , {S} =    0.76928  -0.00000   0.76928   0.00000
mix: Pulay -- resetting history
mix: switching mixer --> Linear-Kick
   scf:  150    -2804.522036    -2804.522038    -2804.654100  0.000047 -4.214318  0.006864
     spin moment: S , {S} =    0.76920  -0.00000   0.76920   0.00000
mix: switching mixer --> Pulay
   scf:  151    -2804.522720    -2804.522310    -2804.654312  0.003976 -4.215462  0.008726
     spin moment: S , {S} =    0.76115  -0.00000   0.76115   0.00000
   scf:  152    -2804.521816    -2804.522032    -2804.654092  0.004167 -4.214246  0.006762
     spin moment: S , {S} =    0.76958  -0.00000   0.76958   0.00000
   scf:  153    -2804.521940    -2804.521987    -2804.654059  0.000846 -4.214084  0.006323
     spin moment: S , {S} =    0.77079  -0.00000   0.77079   0.00000
   scf:  154    -2804.521811    -2804.521888    -2804.653992  0.002439 -4.213772  0.004967
     spin moment: S , {S} =    0.77326  -0.00000   0.77326  -0.00000
   scf:  155    -2804.521836    -2804.521840    -2804.653957  0.002901 -4.213509  0.004839
     spin moment: S , {S} =    0.77535  -0.00000   0.77535  -0.00000
   scf:  156    -2804.521839    -2804.521836    -2804.653948  0.001047 -4.213253  0.004840
     spin moment: S , {S} =    0.77786  -0.00000   0.77786  -0.00000
   scf:  157    -2804.521900    -2804.521859    -2804.653981  0.001662 -4.214075  0.004615
     spin moment: S , {S} =    0.76986  -0.00000   0.76986  -0.00000
   scf:  158    -2804.521849    -2804.521853    -2804.653986  0.000429 -4.214273  0.004603
     spin moment: S , {S} =    0.76842  -0.00000   0.76842  -0.00000
   scf:  159    -2804.521839    -2804.521845    -2804.653991  0.000428 -4.214431  0.004593
     spin moment: S , {S} =    0.76735  -0.00000   0.76735  -0.00000
   scf:  160    -2804.521822    -2804.521833    -2804.653996  0.000220 -4.214606  0.004588
     spin moment: S , {S} =    0.76604  -0.00000   0.76604  -0.00000
   scf:  161    -2804.521755    -2804.521788    -2804.654011  0.001341 -4.215123  0.004695
     spin moment: S , {S} =    0.76193  -0.00000   0.76193  -0.00000
   scf:  162    -2804.521771    -2804.521779    -2804.654015  0.000151 -4.215225  0.004707
     spin moment: S , {S} =    0.76116  -0.00000   0.76116  -0.00000
   scf:  163    -2804.521591    -2804.521678    -2804.654045  0.001392 -4.216234  0.004678
     spin moment: S , {S} =    0.75387  -0.00000   0.75387  -0.00000
   scf:  164    -2804.521669    -2804.521673    -2804.654049  0.000151 -4.216313  0.004681
     spin moment: S , {S} =    0.75321  -0.00000   0.75321  -0.00000
   scf:  165    -2804.521677    -2804.521674    -2804.654056  0.000463 -4.216430  0.004706
     spin moment: S , {S} =    0.75211  -0.00000   0.75211  -0.00000
   scf:  166    -2804.521676    -2804.521675    -2804.654058  0.000079 -4.216465  0.004716
     spin moment: S , {S} =    0.75186  -0.00000   0.75186  -0.00000
   scf:  167    -2804.521675    -2804.521674    -2804.654064  0.000370 -4.216615  0.004736
     spin moment: S , {S} =    0.75084  -0.00000   0.75084  -0.00000
   scf:  168    -2804.521673    -2804.521673    -2804.654064  0.000032 -4.216633  0.004741
     spin moment: S , {S} =    0.75071  -0.00000   0.75071  -0.00000
   scf:  169    -2804.521674    -2804.521674    -2804.654065  0.000045 -4.216654  0.004752
     spin moment: S , {S} =    0.75055  -0.00000   0.75055  -0.00000
   scf:  170    -2804.521672    -2804.521673    -2804.654066  0.000008 -4.216659  0.004751
     spin moment: S , {S} =    0.75051  -0.00000   0.75051  -0.00000
   scf:  171    -2804.521674    -2804.521673    -2804.654065  0.000006 -4.216656  0.004752
     spin moment: S , {S} =    0.75054  -0.00000   0.75054  -0.00000
   scf:  172    -2804.521671    -2804.521672    -2804.654066  0.000033 -4.216679  0.004752
     spin moment: S , {S} =    0.75037  -0.00000   0.75037  -0.00000
   scf:  173    -2804.521672    -2804.521672    -2804.654068  0.000111 -4.216730  0.004757
     spin moment: S , {S} =    0.75001  -0.00000   0.75001  -0.00000
   scf:  174    -2804.521671    -2804.521671    -2804.654068  0.000033 -4.216736  0.004760
     spin moment: S , {S} =    0.74999  -0.00000   0.74999  -0.00000
   scf:  175    -2804.521669    -2804.521670    -2804.654068  0.000017 -4.216737  0.004756
     spin moment: S , {S} =    0.74999  -0.00000   0.74999  -0.00000
   scf:  176    -2804.521672    -2804.521671    -2804.654069  0.000039 -4.216742  0.004762
     spin moment: S , {S} =    0.74993  -0.00000   0.74993  -0.00000
   scf:  177    -2804.521676    -2804.521674    -2804.654067  0.000071 -4.216700  0.004756
     spin moment: S , {S} =    0.75027  -0.00000   0.75027  -0.00000
   scf:  178    -2804.521670    -2804.521672    -2804.654069  0.000080 -4.216752  0.004757
     spin moment: S , {S} =    0.74988  -0.00000   0.74988  -0.00000
   scf:  179    -2804.521670    -2804.521671    -2804.654071  0.000086 -4.216802  0.004764
     spin moment: S , {S} =    0.74952  -0.00000   0.74952  -0.00000
   scf:  180    -2804.521673    -2804.521672    -2804.654070  0.000053 -4.216772  0.004758
     spin moment: S , {S} =    0.74974  -0.00000   0.74974  -0.00000
   scf:  181    -2804.521693    -2804.521682    -2804.654071  0.000282 -4.216756  0.004768
     spin moment: S , {S} =    0.74972  -0.00000   0.74972  -0.00000
   scf:  182    -2804.521682    -2804.521682    -2804.654070  0.000033 -4.216749  0.004768
     spin moment: S , {S} =    0.74980  -0.00000   0.74980  -0.00000
   scf:  183    -2804.521632    -2804.521657    -2804.654076  0.000247 -4.216991  0.004635
     spin moment: S , {S} =    0.74748  -0.00000   0.74748  -0.00000
   scf:  184    -2804.521657    -2804.521657    -2804.654075  0.000120 -4.216971  0.004603
     spin moment: S , {S} =    0.74761  -0.00000   0.74761  -0.00000
   scf:  185    -2804.521655    -2804.521655    -2804.654076  0.000253 -4.217038  0.004574
     spin moment: S , {S} =    0.74711  -0.00000   0.74711  -0.00000
   scf:  186    -2804.521655    -2804.521655    -2804.654076  0.000007 -4.217042  0.004573
     spin moment: S , {S} =    0.74709  -0.00000   0.74709  -0.00000
   scf:  187    -2804.521655    -2804.521655    -2804.654077  0.000038 -4.217066  0.004574
     spin moment: S , {S} =    0.74690  -0.00000   0.74690  -0.00000
   scf:  188    -2804.521659    -2804.521657    -2804.654077  0.000033 -4.217042  0.004576
     spin moment: S , {S} =    0.74709  -0.00000   0.74709  -0.00000
   scf:  189    -2804.521653    -2804.521655    -2804.654078  0.000065 -4.217081  0.004586
     spin moment: S , {S} =    0.74682  -0.00000   0.74682  -0.00000
   scf:  190    -2804.521656    -2804.521655    -2804.654077  0.000049 -4.217060  0.004567
     spin moment: S , {S} =    0.74694  -0.00000   0.74694  -0.00000
   scf:  191    -2804.521653    -2804.521654    -2804.654077  0.000128 -4.217089  0.004547
     spin moment: S , {S} =    0.74672  -0.00000   0.74672  -0.00000
   scf:  192    -2804.521654    -2804.521654    -2804.654078  0.000025 -4.217101  0.004550
     spin moment: S , {S} =    0.74662  -0.00000   0.74662  -0.00000
   scf:  193    -2804.521655    -2804.521654    -2804.654076  0.000095 -4.217052  0.004540
     spin moment: S , {S} =    0.74701  -0.00000   0.74701  -0.00000
   scf:  194    -2804.521649    -2804.521652    -2804.654077  0.000062 -4.217090  0.004530
     spin moment: S , {S} =    0.74673  -0.00000   0.74673  -0.00000
   scf:  195    -2804.521652    -2804.521652    -2804.654078  0.000072 -4.217123  0.004542
     spin moment: S , {S} =    0.74654  -0.00000   0.74654  -0.00000
   scf:  196    -2804.521650    -2804.521651    -2804.654078  0.000006 -4.217129  0.004538
     spin moment: S , {S} =    0.74648  -0.00000   0.74648  -0.00000
   scf:  197    -2804.521656    -2804.521654    -2804.654076  0.000079 -4.217079  0.004532
     spin moment: S , {S} =    0.74684  -0.00000   0.74684  -0.00000
   scf:  198    -2804.521656    -2804.521655    -2804.654076  0.000017 -4.217092  0.004519
     spin moment: S , {S} =    0.74671  -0.00000   0.74671  -0.00000
   scf:  199    -2804.521655    -2804.521655    -2804.654077  0.000017 -4.217104  0.004518
     spin moment: S , {S} =    0.74662  -0.00000   0.74662  -0.00000
mix: Pulay -- resetting history
mix: switching mixer --> Linear-Kick
   scf:  200    -2804.521662    -2804.521659    -2804.654077  0.000132 -4.217070  0.004542
     spin moment: S , {S} =    0.74689  -0.00000   0.74689  -0.00000
mix: switching mixer --> Pulay
   scf:  201    -2804.521781    -2804.521709    -2804.654130  0.002127 -4.217982  0.005236
     spin moment: S , {S} =    0.74163  -0.00000   0.74163  -0.00000
   scf:  202    -2804.521615    -2804.521654    -2804.654075  0.002190 -4.217079  0.004496
     spin moment: S , {S} =    0.74677  -0.00000   0.74677  -0.00000
   scf:  203    -2804.521651    -2804.521652    -2804.654074  0.000073 -4.217067  0.004462
     spin moment: S , {S} =    0.74683  -0.00000   0.74683  -0.00000
   scf:  204    -2804.521684    -2804.521651    -2804.654063  0.001736 -4.217060  0.003758
     spin moment: S , {S} =    0.74678  -0.00000   0.74678   0.00000
   scf:  205    -2804.521647    -2804.521638    -2804.654043  0.002263 -4.216327  0.004035
     spin moment: S , {S} =    0.75101  -0.00000   0.75101  -0.00000
   scf:  206    -2804.521665    -2804.521630    -2804.654081  0.002353 -4.217447  0.004134
     spin moment: S , {S} =    0.74471  -0.00000   0.74471   0.00000
   scf:  207    -2804.521656    -2804.521643    -2804.654073  0.000351 -4.217272  0.004084
     spin moment: S , {S} =    0.74563  -0.00000   0.74563   0.00000
   scf:  208    -2804.521643    -2804.521643    -2804.654073  0.000010 -4.217274  0.004088
     spin moment: S , {S} =    0.74563  -0.00000   0.74563   0.00000
   scf:  209    -2804.521643    -2804.521643    -2804.654073  0.000016 -4.217276  0.004096
     spin moment: S , {S} =    0.74562  -0.00000   0.74562   0.00000
   scf:  210    -2804.521650    -2804.521638    -2804.654056  0.001602 -4.217048  0.003457
     spin moment: S , {S} =    0.74718  -0.00000   0.74718   0.00000
   scf:  211    -2804.521641    -2804.521639    -2804.654059  0.000133 -4.217113  0.003472
     spin moment: S , {S} =    0.74680  -0.00000   0.74680   0.00000
   scf:  212    -2804.521627    -2804.521633    -2804.654058  0.000067 -4.217088  0.003484
     spin moment: S , {S} =    0.74697  -0.00000   0.74697   0.00000
   scf:  213    -2804.521642    -2804.521638    -2804.654056  0.000116 -4.217040  0.003463
     spin moment: S , {S} =    0.74722  -0.00000   0.74722   0.00000
   scf:  214    -2804.521323    -2804.521459    -2804.654075  0.002335 -4.219500  0.002358
     spin moment: S , {S} =    0.73131  -0.00000   0.73131  -0.00000
   scf:  215    -2804.521397    -2804.521427    -2804.654080  0.000452 -4.220009  0.002149
     spin moment: S , {S} =    0.72800  -0.00000   0.72800  -0.00000
   scf:  216    -2804.521177    -2804.521284    -2804.654104  0.002061 -4.222389  0.001512
     spin moment: S , {S} =    0.71234  -0.00000   0.71234  -0.00000
   scf:  217    -2804.521282    -2804.521283    -2804.654106  0.000184 -4.222426  0.001534
     spin moment: S , {S} =    0.71205  -0.00000   0.71205  -0.00000
   scf:  218    -2804.521320    -2804.521301    -2804.654110  0.000358 -4.222446  0.001579
     spin moment: S , {S} =    0.71179  -0.00000   0.71179  -0.00000
   scf:  219    -2804.521298    -2804.521300    -2804.654110  0.000031 -4.222480  0.001573
     spin moment: S , {S} =    0.71157  -0.00000   0.71157  -0.00000
   scf:  220    -2804.521140    -2804.521214    -2804.654119  0.001230 -4.224128  0.001217
     spin moment: S , {S} =    0.70155  -0.00000   0.70155  -0.00000
   scf:  221    -2804.521220    -2804.521217    -2804.654118  0.000125 -4.224048  0.001231
     spin moment: S , {S} =    0.70212  -0.00000   0.70212  -0.00000
   scf:  222    -2804.521229    -2804.521223    -2804.654115  0.000491 -4.223807  0.001307
     spin moment: S , {S} =    0.70385  -0.00000   0.70385  -0.00000
   scf:  223    -2804.521223    -2804.521223    -2804.654115  0.000007 -4.223799  0.001310
     spin moment: S , {S} =    0.70388  -0.00000   0.70388  -0.00000
   scf:  224    -2804.521192    -2804.521207    -2804.654117  0.000263 -4.223950  0.001338
     spin moment: S , {S} =    0.70266  -0.00000   0.70266  -0.00000
   scf:  225    -2804.521204    -2804.521206    -2804.654118  0.000024 -4.223968  0.001338
     spin moment: S , {S} =    0.70253  -0.00000   0.70253  -0.00000
   scf:  226    -2804.521189    -2804.521197    -2804.654118  0.000128 -4.224058  0.001347
     spin moment: S , {S} =    0.70192  -0.00000   0.70192  -0.00000
   scf:  227    -2804.521198    -2804.521198    -2804.654118  0.000043 -4.224029  0.001362
     spin moment: S , {S} =    0.70208  -0.00000   0.70208  -0.00000
   scf:  228    -2804.521197    -2804.521197    -2804.654118  0.000006 -4.224029  0.001365
     spin moment: S , {S} =    0.70208  -0.00000   0.70208  -0.00000
   scf:  229    -2804.521198    -2804.521198    -2804.654118  0.000009 -4.224012  0.001369
     spin moment: S , {S} =    0.70217  -0.00000   0.70217  -0.00000
   scf:  230    -2804.521188    -2804.521193    -2804.654119  0.000085 -4.224064  0.001375
     spin moment: S , {S} =    0.70175  -0.00000   0.70175  -0.00000
   scf:  231    -2804.521190    -2804.521192    -2804.654119  0.000022 -4.224082  0.001374
     spin moment: S , {S} =    0.70162  -0.00000   0.70162  -0.00000
   scf:  232    -2804.521186    -2804.521189    -2804.654120  0.000048 -4.224113  0.001377
     spin moment: S , {S} =    0.70141  -0.00000   0.70141  -0.00000
   scf:  233    -2804.521190    -2804.521189    -2804.654120  0.000018 -4.224100  0.001384
     spin moment: S , {S} =    0.70149  -0.00000   0.70149  -0.00000
   scf:  234    -2804.521190    -2804.521190    -2804.654119  0.000012 -4.224102  0.001376
     spin moment: S , {S} =    0.70148  -0.00000   0.70148  -0.00000
   scf:  235    -2804.521191    -2804.521190    -2804.654119  0.000023 -4.224075  0.001373
     spin moment: S , {S} =    0.70160  -0.00000   0.70160  -0.00000
   scf:  236    -2804.521158    -2804.521174    -2804.654122  0.000240 -4.224261  0.001355
     spin moment: S , {S} =    0.70010  -0.00000   0.70010  -0.00000
   scf:  237    -2804.521168    -2804.521171    -2804.654122  0.000047 -4.224305  0.001349
     spin moment: S , {S} =    0.69979  -0.00000   0.69979  -0.00000
   scf:  238    -2804.521162    -2804.521167    -2804.654122  0.000056 -4.224352  0.001341
     spin moment: S , {S} =    0.69948  -0.00000   0.69948  -0.00000
   scf:  239    -2804.521169    -2804.521168    -2804.654122  0.000025 -4.224317  0.001351
     spin moment: S , {S} =    0.69970  -0.00000   0.69970  -0.00000
   scf:  240    -2804.521169    -2804.521168    -2804.654122  0.000007 -4.224319  0.001346
     spin moment: S , {S} =    0.69969  -0.00000   0.69969  -0.00000
   scf:  241    -2804.521173    -2804.521171    -2804.654122  0.000044 -4.224294  0.001332
     spin moment: S , {S} =    0.69981  -0.00000   0.69981  -0.00000
   scf:  242    -2804.521155    -2804.521162    -2804.654123  0.000127 -4.224431  0.001289
     spin moment: S , {S} =    0.69873  -0.00000   0.69873  -0.00000
   scf:  243    -2804.521157    -2804.521160    -2804.654123  0.000036 -4.224476  0.001277
     spin moment: S , {S} =    0.69842  -0.00000   0.69842  -0.00000
   scf:  244    -2804.521153    -2804.521156    -2804.654123  0.000036 -4.224516  0.001260
     spin moment: S , {S} =    0.69814  -0.00000   0.69814  -0.00000
   scf:  245    -2804.521159    -2804.521158    -2804.654122  0.000041 -4.224456  0.001272
     spin moment: S , {S} =    0.69848  -0.00000   0.69848  -0.00000
   scf:  246    -2804.521155    -2804.521156    -2804.654123  0.000016 -4.224463  0.001275
     spin moment: S , {S} =    0.69842  -0.00000   0.69842  -0.00000
   scf:  247    -2804.521155    -2804.521156    -2804.654123  0.000008 -4.224468  0.001277
     spin moment: S , {S} =    0.69838  -0.00000   0.69838  -0.00000
   scf:  248    -2804.521150    -2804.521153    -2804.654123  0.000038 -4.224511  0.001265
     spin moment: S , {S} =    0.69804  -0.00000   0.69804  -0.00000
   scf:  249    -2804.521152    -2804.521152    -2804.654123  0.000005 -4.224516  0.001264
     spin moment: S , {S} =    0.69800  -0.00000   0.69800  -0.00000
mix: Pulay -- resetting history
mix: switching mixer --> Linear-Kick
   scf:  250    -2804.521145    -2804.521149    -2804.654123  0.000027 -4.224542  0.001258
     spin moment: S , {S} =    0.69778  -0.00000   0.69778  -0.00000
mix: switching mixer --> Pulay
   scf:  251    -2804.521088    -2804.521117    -2804.654133  0.000835 -4.224650  0.001698
     spin moment: S , {S} =    0.69666  -0.00000   0.69666  -0.00000
   scf:  252    -2804.521192    -2804.521153    -2804.654123  0.000869 -4.224514  0.001261
     spin moment: S , {S} =    0.69802  -0.00000   0.69802  -0.00000
   scf:  253    -2804.521151    -2804.521152    -2804.654121  0.000181 -4.224426  0.001242
     spin moment: S , {S} =    0.69874  -0.00000   0.69874  -0.00000
   scf:  254    -2804.521161    -2804.521156    -2804.654119  0.000254 -4.224302  0.001196
     spin moment: S , {S} =    0.69965  -0.00000   0.69965   0.00000
   scf:  255    -2804.521152    -2804.521154    -2804.654119  0.000034 -4.224319  0.001208
     spin moment: S , {S} =    0.69956  -0.00000   0.69956   0.00000
   scf:  256    -2804.521202    -2804.521176    -2804.654115  0.000617 -4.223940  0.001098
     spin moment: S , {S} =    0.70186  -0.00000   0.70186   0.00000
   scf:  257    -2804.521176    -2804.521176    -2804.654115  0.000004 -4.223945  0.001097
     spin moment: S , {S} =    0.70184  -0.00000   0.70184   0.00000
   scf:  258    -2804.521161    -2804.521169    -2804.654116  0.000158 -4.224066  0.001058
     spin moment: S , {S} =    0.70110  -0.00000   0.70110   0.00000
   scf:  259    -2804.521155    -2804.521162    -2804.654116  0.000105 -4.224153  0.001056
     spin moment: S , {S} =    0.70053  -0.00000   0.70053   0.00000
   scf:  260    -2804.521158    -2804.521160    -2804.654117  0.000037 -4.224177  0.001059
     spin moment: S , {S} =    0.70036  -0.00000   0.70036   0.00000
   scf:  261    -2804.521157    -2804.521159    -2804.654117  0.000034 -4.224196  0.001065
     spin moment: S , {S} =    0.70023  -0.00000   0.70023   0.00000
   scf:  262    -2804.521160    -2804.521159    -2804.654117  0.000009 -4.224193  0.001061
     spin moment: S , {S} =    0.70024  -0.00000   0.70024   0.00000
   scf:  263    -2804.521160    -2804.521160    -2804.654117  0.000019 -4.224185  0.001056
     spin moment: S , {S} =    0.70029  -0.00000   0.70029   0.00000
   scf:  264    -2804.521160    -2804.521160    -2804.654117  0.000007 -4.224178  0.001058
     spin moment: S , {S} =    0.70033  -0.00000   0.70033   0.00000
   scf:  265    -2804.521159    -2804.521160    -2804.654117  0.000007 -4.224184  0.001057
     spin moment: S , {S} =    0.70029  -0.00000   0.70029   0.00000
   scf:  266    -2804.521160    -2804.521160    -2804.654117  0.000007 -4.224186  0.001058
     spin moment: S , {S} =    0.70028  -0.00000   0.70028   0.00000
   scf:  267    -2804.521160    -2804.521160    -2804.654117  0.000013 -4.224177  0.001058
     spin moment: S , {S} =    0.70034  -0.00000   0.70034   0.00000
   scf:  268    -2804.521161    -2804.521160    -2804.654117  0.000006 -4.224176  0.001055
     spin moment: S , {S} =    0.70035  -0.00000   0.70035   0.00000
   scf:  269    -2804.521161    -2804.521161    -2804.654117  0.000018 -4.224169  0.001049
     spin moment: S , {S} =    0.70039  -0.00000   0.70039   0.00000
   scf:  270    -2804.521162    -2804.521161    -2804.654117  0.000005 -4.224163  0.001050
     spin moment: S , {S} =    0.70042  -0.00000   0.70042   0.00000
   scf:  271    -2804.521160    -2804.521161    -2804.654117  0.000010 -4.224173  0.001048
     spin moment: S , {S} =    0.70036  -0.00000   0.70036   0.00000
   scf:  272    -2804.521161    -2804.521161    -2804.654117  0.000008 -4.224169  0.001049
     spin moment: S , {S} =    0.70039  -0.00000   0.70039   0.00000
   scf:  273    -2804.521161    -2804.521161    -2804.654117  0.000003 -4.224169  0.001050
     spin moment: S , {S} =    0.70039  -0.00000   0.70039   0.00000
   scf:  274    -2804.521161    -2804.521161    -2804.654117  0.000010 -4.224175  0.001050
     spin moment: S , {S} =    0.70034  -0.00000   0.70034   0.00000
   scf:  275    -2804.521159    -2804.521160    -2804.654117  0.000019 -4.224186  0.001052
     spin moment: S , {S} =    0.70026  -0.00000   0.70026   0.00000
   scf:  276    -2804.521159    -2804.521159    -2804.654117  0.000011 -4.224196  0.001053
     spin moment: S , {S} =    0.70021  -0.00000   0.70021   0.00000
   scf:  277    -2804.521159    -2804.521159    -2804.654117  0.000008 -4.224201  0.001054
     spin moment: S , {S} =    0.70018  -0.00000   0.70018   0.00000
   scf:  278    -2804.521159    -2804.521159    -2804.654117  0.000004 -4.224200  0.001057
     spin moment: S , {S} =    0.70019  -0.00000   0.70019   0.00000
   scf:  279    -2804.521162    -2804.521160    -2804.654117  0.000035 -4.224185  0.001059
     spin moment: S , {S} =    0.70028  -0.00000   0.70028   0.00000
   scf:  280    -2804.521162    -2804.521161    -2804.654117  0.000033 -4.224178  0.001065
     spin moment: S , {S} =    0.70032  -0.00000   0.70032   0.00000
   scf:  281    -2804.521160    -2804.521160    -2804.654117  0.000026 -4.224182  0.001076
     spin moment: S , {S} =    0.70028  -0.00000   0.70028   0.00000
   scf:  282    -2804.521159    -2804.521160    -2804.654117  0.000009 -4.224190  0.001075
     spin moment: S , {S} =    0.70025  -0.00000   0.70025   0.00000
   scf:  283    -2804.521160    -2804.521160    -2804.654117  0.000002 -4.224190  0.001076
     spin moment: S , {S} =    0.70025  -0.00000   0.70025   0.00000
   scf:  284    -2804.521160    -2804.521160    -2804.654117  0.000005 -4.224185  0.001078
     spin moment: S , {S} =    0.70028  -0.00000   0.70028   0.00000
   scf:  285    -2804.521160    -2804.521160    -2804.654117  0.000003 -4.224184  0.001078
     spin moment: S , {S} =    0.70029  -0.00000   0.70029   0.00000
   scf:  286    -2804.521159    -2804.521159    -2804.654117  0.000015 -4.224191  0.001080
     spin moment: S , {S} =    0.70024  -0.00000   0.70024   0.00000
   scf:  287    -2804.521158    -2804.521159    -2804.654117  0.000009 -4.224199  0.001080
     spin moment: S , {S} =    0.70019  -0.00000   0.70019   0.00000
   scf:  288    -2804.521160    -2804.521159    -2804.654117  0.000006 -4.224192  0.001080
     spin moment: S , {S} =    0.70023  -0.00000   0.70023   0.00000
   scf:  289    -2804.521159    -2804.521159    -2804.654117  0.000004 -4.224194  0.001081
     spin moment: S , {S} =    0.70022  -0.00000   0.70022   0.00000
   scf:  290    -2804.521158    -2804.521158    -2804.654117  0.000015 -4.224202  0.001084
     spin moment: S , {S} =    0.70017  -0.00000   0.70017   0.00000
   scf:  291    -2804.521161    -2804.521160    -2804.654117  0.000025 -4.224190  0.001078
     spin moment: S , {S} =    0.70025  -0.00000   0.70025   0.00000
   scf:  292    -2804.521177    -2804.521168    -2804.654115  0.000283 -4.224055  0.001019
     spin moment: S , {S} =    0.70117  -0.00000   0.70117   0.00000
   scf:  293    -2804.521169    -2804.521168    -2804.654115  0.000029 -4.224043  0.001012
     spin moment: S , {S} =    0.70125  -0.00000   0.70125   0.00000
   scf:  294    -2804.521144    -2804.521155    -2804.654115  0.000342 -4.224155  0.000863
     spin moment: S , {S} =    0.70037  -0.00000   0.70037   0.00000
   scf:  295    -2804.521156    -2804.521156    -2804.654115  0.000004 -4.224153  0.000865
     spin moment: S , {S} =    0.70039  -0.00000   0.70039   0.00000

SCF Convergence by DM+H criterion
max |DM_out - DM_in|         :     0.0000037972
max |H_out - H_in|      (eV) :     0.0008645056
SCF cycle converged after 295 iterations

Using DM_out to compute the final energy and forces
No. of atoms with KB's overlaping orbs in proc 0. Max # of overlaps:       2      30

siesta: E_KS(eV) =            -2804.5212

siesta: E_KS - E_eggbox =     -2804.5212
     spin moment: S , {S} =    0.70039  -0.00000   0.70039   0.00000

siesta: Atomic forces (eV/Ang):
     1    0.000000   -0.000000   -0.522619
     2    0.000000    0.000000    0.522619
----------------------------------------
   Tot    0.000000    0.000000    0.000000
----------------------------------------
   Max    0.522619
   Res    0.301734    sqrt( Sum f_i^2 / 3N )
----------------------------------------
   Max    0.522619    constrained

Stress tensor Voigt[x,y,z,yz,xz,xy] (kbar):        0.00       -0.00       -0.24       -0.00       -0.00        0.00
(Free)E + p*V (eV/cell)    -2804.2463
Target enthalpy (eV/cell)    -2804.6541

mulliken: Atomic and Orbital Populations:

Species: Pt_SOC              

Atom      Orb        Charge      Spin       Svec
----------------------------------------------------------------
    1  1 6s         1.04231   0.01714     -0.000  -0.017  -0.000
    1  2 6s         0.13795   0.00766      0.000   0.008   0.000
    1  3 5dxy       1.81550   0.02958      0.000   0.030   0.000
    1  4 5dyz       1.67149   0.13015     -0.000   0.130   0.000
    1  5 5dz2       1.80157   0.01273      0.000   0.013   0.000
    1  6 5dxz       1.67272   0.13141      0.000   0.131   0.000
    1  7 5dx2-y2    1.81464   0.03144     -0.000   0.031   0.000
    1  8 5dxy      -0.01944   0.00384     -0.000   0.004  -0.000
    1  9 5dyz       0.00360   0.00440      0.000   0.004  -0.000
    1 10 5dz2       0.01909   0.00245     -0.000   0.002   0.000
    1 11 5dxz       0.00364   0.00391     -0.000   0.004  -0.000
    1 12 5dx2-y2   -0.01937   0.00374      0.000   0.004  -0.000
    1 13 6Ppy       0.03180   0.00349     -0.000   0.003   0.000
    1 14 6Ppz      -0.00732   0.00115      0.000  -0.001  -0.000
    1 15 6Ppx       0.03183   0.00367      0.000   0.004   0.000
    1     Total    10.00000   0.35020     -0.000   0.350   0.000

    2  1 6s         1.04231   0.01714      0.000  -0.017  -0.000
    2  2 6s         0.13795   0.00766      0.000   0.008   0.000
    2  3 5dxy       1.81550   0.02958      0.000   0.030   0.000
    2  4 5dyz       1.67149   0.13015     -0.000   0.130   0.000
    2  5 5dz2       1.80157   0.01273      0.000   0.013   0.000
    2  6 5dxz       1.67272   0.13142      0.000   0.131   0.000
    2  7 5dx2-y2    1.81464   0.03143     -0.000   0.031   0.000
    2  8 5dxy      -0.01944   0.00385     -0.000   0.004  -0.000
    2  9 5dyz       0.00360   0.00440      0.000   0.004  -0.000
    2 10 5dz2       0.01909   0.00245     -0.000   0.002   0.000
    2 11 5dxz       0.00364   0.00391     -0.000   0.004  -0.000
    2 12 5dx2-y2   -0.01937   0.00374      0.000   0.004  -0.000
    2 13 6Ppy       0.03180   0.00349     -0.000   0.003   0.000
    2 14 6Ppz      -0.00732   0.00115      0.000  -0.001  -0.000
    2 15 6Ppx       0.03183   0.00367      0.000   0.004   0.000
    2     Total    10.00000   0.35019      0.000   0.350   0.000

----------------------------------------------------------------
Total              20.00000   0.70039     -0.000   0.700   0.000


siesta: Eigenvalues (eV):
ik =     1
   -8.5692   -8.4271   -7.2961   -7.2772   -6.7777   -6.7758   -6.0169   -6.0147   -5.7090   -5.6249
   -5.1909   -5.1901   -4.8019   -4.7891   -4.7732   -4.7714   -4.5550   -4.4464   -4.2566   -4.2558
   -4.1936   -4.1934   -3.6173   -3.4369   -0.0956   -0.0796    0.5525    0.6594    1.0354    1.0421
    3.3095    3.3437    4.6679    4.6760    8.7359    8.8005    9.7242    9.7737   13.0954   13.2082
   20.8511   20.8517   21.1355   21.1432   21.4886   21.4894   21.5931   21.5938   23.5527   23.5534
   24.1648   24.1656   26.6002   26.6545   27.4969   27.5183   27.8005   27.8047   35.6533   35.7593
siesta: Fermi energy =      -4.224153 eV

siesta: Program's energy decomposition (eV):
siesta: Ebs     =      -115.473946
siesta: Eions   =      1671.574203
siesta: Ena     =        29.270178
siesta: Ekin    =      1097.749390
siesta: Enl     =      -554.937279
siesta: Eso     =        -1.530177
siesta: Edftu   =         0.000000
siesta: DEna    =         5.523216
siesta: DUscf   =         0.922128
siesta: DUext   =         0.000000
siesta: Exc     =     -1709.944408
siesta: eta*DQ  =         0.000000
siesta: Emadel  =         0.000000
siesta: Emeta   =         0.000000
siesta: Emolmec =         0.000000
siesta: Ekinion =         0.000000
siesta: Eharris =     -2804.521156
siesta: Etot    =     -2804.521156
siesta: FreeEng =     -2804.654115

siesta: Final energy (eV):
siesta:  Band Struct. =    -115.473946
siesta:       Kinetic =    1097.749390
siesta:       Hartree =    1576.354709
siesta:       Edftu   =       0.000000
siesta:       Eso     =      -1.530177
siesta:    Ext. field =       0.000000
siesta:   Exch.-corr. =   -1709.944408
siesta:  Ion-electron =   -3962.691824
siesta:       Ion-ion =     195.541155
siesta:       Ekinion =       0.000000
siesta:         Total =   -2804.521156
siesta:         Fermi =      -4.224153

siesta: Atomic forces (eV/Ang):
siesta:      1    0.000000   -0.000000   -0.522619
siesta:      2    0.000000    0.000000    0.522619
siesta: ----------------------------------------
siesta:    Tot    0.000000    0.000000    0.000000

siesta: Stress tensor (static) (eV/Ang**3):
siesta:     0.000000    0.000000   -0.000000
siesta:     0.000000   -0.000000   -0.000000
siesta:    -0.000000   -0.000000   -0.000153

siesta: Cell volume =       8000.000000 Ang**3

siesta: Pressure (static):
siesta:                Solid            Molecule  Units
siesta:           0.00000056         -0.00000001  Ry/Bohr**3
siesta:           0.00005098         -0.00000126  eV/Ang**3
siesta:           0.08167935         -0.00201241  kBar
(Free)E+ p_basis*V_orbitals  =       -2802.939305
(Free)Eharris+ p_basis*V_orbitals  =       -2802.939305
     spin moment: S , {S} =    0.70039  -0.00000   0.70039   0.00000

siesta: Electric dipole (a.u.)  =   -0.000000    0.000000    0.000008
siesta: Electric dipole (Debye) =   -0.000000    0.000000    0.000021

cite: Please see "SOC_Pt2_zy.bib" for an exhaustive BiBTeX file.
cite: Please clearly indicate Siesta version in published work: v4.1-b4-351
cite: This calculation has made use of the following articles
cite: which are encouraged to be cited in a published work.
        Primary SIESTA paper
          DOI: www.doi.org/10.1088/0953-8984/14/11/302
        Spin-orbit coupling (on-site approximation)
          DOI: www.doi.org/10.1088/0953-8984/19/19/489001

>> End of run:  22-JAN-2021  21:19:25
Job completed
