Siesta Version  : v4.1-b4-351
Architecture    : x86_64-linux-n-62-26-19
Compiler version: GNU Fortran (GCC) 9.3.0
Compiler flags  : mpifort -m64 -fPIC -O3 -march=native -ftree-vectorize -fexpensive-optimizatioons -funroll-loops -fprefetch-loop-arrays -fno-second-underscore  -flto
PP flags        : -I/dtu/sw/dcc/SL73/2020-aug/generic/build-tools/1.0/include -I/dtu/sw/dcc/SL773/2020-aug/generic/gcc/9.3.0/include -I/dtu/sw/dcc/SL73/2020-aug/generic/gcc/9.3.0/include -I/dtu/sw/dcc/SL73/2020-aug/XeonE5-2660v3/gnu/9.3.0/zlib/1.2.11/include -I/dtu/sw/dcc/SL73/2020-aug/generic/numactl/2.0.12/include -I/dtu/sw/dcc/SL73/2020-aug/XeonE5-2660v3/gnu/9.3.0/libxml2/2.9.10/include -I/dtu/sw/dcc/SL73/2020-aug/XeonE5-2660v3/gnu/9.3.0/hwloc/2.2.0/include -I/dtu/sw/dcc/SL73/2020-aug/XeonE5-2660v3/gnu/9.3.0/knem/1.1.4/include -I/dtu/sw/dcc/SL73/2020-aug/XeonE5-2660v3/gnu/9.3.0/ucx/1.8.1/include -I/dtu/sw/dcc/SL73/2020-aug/XeonE5-2660v3/gnu/9.3.0/openmpi/4.0.4/include -I/dtu/sw/dcc/SL73/2020-aug/XeonE5-2660v3/gnu/9.3.0/szip/2.1.1/include -I/dtu/sw/dcc/SL73/2020-aug/XeonE5-2660v3/gnu/9.3.0/hdf5/1.12.0/include -I/dtu/sw/dcc/SL73/2020-aug/XeonE5-2660v3/gnu/9.3.0/pnetcdf/1.12.1/include -I/dtu/sw/dcc/SL73/2020-aug/generic/gen-zlib/1.2.11/include -I/dtu/sw/dcc/SL73/2020-aug/generic/openssl/1.1.1/include -I/dtu/sw/dcc/SL73/2020-aug/generic/libssh2/1.8.2/include -I/dtu/sw/dcc/SL73/2020-aug/generic/curl/7.65.1/include -I/dtu/sw/dcc/SL73/2020-aug/XeonE5-2660v3/gnu/9.3.0/netcdf/4.7.4/include -I/dtu/sw/dcc/SL73/2020-aug/XeonE5-2660v3/gnu/9.3.0/flook/0.8.1/include -I/dtu/sw/dcc/SL73/2020-aug/XeonE5-2660v3/gnu/9.3.0/fftw/3.3.8/include -I/dtu/sw/dcc/SL73/2020-aug/XeonE5-2660v3/gnu/9.3.0/parmetis/4.0.3/include -I/dtu/sw/dcc/SL73/2020-aug/XeonE5-2660v3/gnu/9.3.0/scalapack/2.1.0/include -I/dtu/sw/dcc/SL73/2020-aug/XeonE5-2660v3/gnu/9.3.0/lapack/3.9.0/include -I/dtu/sw/dcc/SL73/2020-aug/XeonE5-2660v3/gnu/9.3.0/blis/0.7.0/include -I/dtu/sw/dcc/SL73/2020-aug/XeonE5-2660v3/gnu/9.3.0/scotch/6.0.9/include -I/dtu/sw/dcc/SL73/2020-aug/XeonE5-2660v3/gnu/9.3.0/mumps/5.3.3/include -I/dtu/sw/dcc/SL73/2020-aug/XeonE5-2660v3/gnu/9.3.0/elpa/2020.05.001/include -DSIESTA__ELPA -DMPI -DFC_HAVE_FLUSH -DFC_HAVE_ABORT -DCDF -DCDF4 -DSIESTA__FLOOK  -DNCDF -DNCDF_4 -DNCDF_PARALLEL -DTS_NOCHECKS -DSIESTA__METIS -DSIESTA__MUMPS -DSIESTA__MRRR -I/dtu/sw/dcc/SL73/2020-aug/XeonE5-2660v3/gnu/9.3.0/elpa/2020.05.001/include/elpa
Libraries       : libncdf.a libfdict.a -lnetcdff -lnetcdf -lpnetcdf -lhdf5_hl -lhdf5 -lz  -lzmuumps -lmumps_common -lesmumps -lscotch -lscotcherr -lpord -lparmetis -lmetis -lelpa -lscalapack -llapack -lblis  -L/dtu/sw/dcc/SL73/2020-aug/XeonE5-2660v3/gnu/9.3.0/flook/0.8.1/lib -Wl,-rpath=/dtu/sw/dcc/SL73/2020-aug/XeonE5-2660v3/gnu/9.3.0/flook/0.8.1/lib -lflookall -ldl  -flto -fuse-linker-plugin  -lmetis
PARALLEL version
NetCDF support
NetCDF-4 support
NetCDF-4 MPI-IO support
METIS ordering support
Lua support

* Running on 8 nodes in parallel
>> Start of run:  22-JAN-2021  21:02:50

                           ***********************       
                           *  WELCOME TO SIESTA  *       
                           ***********************       

reinit: Reading from ../SOC_Pt2_xz.fdf

reinit: -----------------------------------------------------------------------
reinit: System Name: Pt2 X-alignment z
reinit: -----------------------------------------------------------------------
reinit: System Label: SOC_Pt2_xz
reinit: -----------------------------------------------------------------------

initatom: Reading input for the pseudopotentials and atomic orbitals ----------
Species number:   1 Atomic number:   78 Label: Pt_SOC

Ground state valence configuration:   6s01  5d09
Reading pseudopotential information in formatted form from Pt_SOC.psf

Pseudopotential generated from a relativistic atomic calculation

Valence configuration for pseudopotential generation:
6s( 1.00) rc: 2.24
6p( 0.00) rc: 2.73
5d( 9.00) rc: 1.24
5f( 0.00) rc: 2.98
For Pt_SOC, standard SIESTA heuristics set lmxkb to 3
 (one more than the basis l, including polarization orbitals).
Use PS.lmax or PS.KBprojectors blocks to override.
Pt_SOC: nkbl increased for l=1 due to the presence of a polarization orbital

<basis_specs>
===============================================================================
Pt_SOC               Z=  78    Mass=  195.08        Charge= 0.17977+309
Lmxo=2 Lmxkb= 3    BasisType=split      Semic=F
L=0  Nsemic=0  Cnfigmx=6
          i=1  nzeta=2  polorb=1  (6s)
            splnorm:   0.15000    
               vcte:    0.0000    
               rinn:    0.0000    
               qcoe:    0.0000    
               qyuk:    0.0000    
               qwid:   0.10000E-01
                rcs:    0.0000      0.0000    
            lambdas:    1.0000      1.0000    
L=1  Nsemic=0  Cnfigmx=6
L=2  Nsemic=0  Cnfigmx=5
          i=1  nzeta=2  polorb=0  (5d)
            splnorm:   0.15000    
               vcte:    0.0000    
               rinn:    0.0000    
               qcoe:    0.0000    
               qyuk:    0.0000    
               qwid:   0.10000E-01
                rcs:    0.0000      0.0000    
            lambdas:    1.0000      1.0000    
-------------------------------------------------------------------------------
L=0  Nkbl=1  erefs: 0.17977+309
L=1  Nkbl=1  erefs: 0.17977+309
L=2  Nkbl=1  erefs: 0.17977+309
L=3  Nkbl=1  erefs: 0.17977+309
===============================================================================
</basis_specs>

atom: Called for Pt_SOC                (Z =  78)

read_vps: Pseudopotential generation method:
read_vps: ATM 3.2.2 Troullier-Martins                       
Valence charge for ps generation:   10.00000

read_vps: Pseudopotential includes a core correction:
read_vps: Pseudo-core for xc-correction

xc_check: Exchange-correlation functional:
xc_check: GGA Perdew, Burke & Ernzerhof 1996
V l=0 = -2*Zval/r beyond r=  3.0596
V l=1 = -2*Zval/r beyond r=  3.0596
V l=2 = -2*Zval/r beyond r=  3.0596
V l=3 = -2*Zval/r beyond r=  3.0981
All V_l potentials equal beyond r=  2.9104
This should be close to max(r_c) in ps generation
All pots = -2*Zval/r beyond r=  3.0981

VLOCAL1: 99.0% of the norm of Vloc inside      5.125 Ry
VLOCAL1: 99.9% of the norm of Vloc inside     11.679 Ry
atom: Maximum radius for 4*pi*r*r*local-pseudopot. charge    3.51058
atom: Maximum radius for r*vlocal+2*Zval:    3.09807
GHOST: No ghost state for L =  0
GHOST: No ghost state for L =  1
GHOST: No ghost state for L =  2
GHOST: No ghost state for L =  3

KBgen: Kleinman-Bylander projectors: 
   l= 0   rc=  3.297886   el= -0.413885   Ekb=  4.454381   kbcos=  0.246717
   l= 1   rc=  3.381373   el= -0.063071   Ekb=  1.998299   kbcos=  0.230762
   l= 2   rc=  3.137044   el= -0.454162   Ekb= -5.116612   kbcos= -0.676172
   l= 3   rc=  3.599455   el=  0.003169   Ekb= -0.935521   kbcos= -0.024370

KBgen: Total number of  Kleinman-Bylander projectors:   16
atom: -------------------------------------------------------------------------

atom: SANKEY-TYPE ORBITALS:
atom: Selected multiple-zeta basis: split     

SPLIT: Orbitals with angular momentum L= 0

SPLIT: Basis orbitals for state 6s

SPLIT: PAO cut-off radius determined from an
SPLIT: energy shift=  0.007350 Ry

   izeta = 1
                 lambda =    1.000000
                     rc =    7.158402
                 energy =   -0.407576
                kinetic =    0.352573
    potential(screened) =   -0.760148
       potential(ionic) =   -7.385835

   izeta = 2
                 rmatch =    6.009165
              splitnorm =    0.150000
                 energy =   -0.341372
                kinetic =    0.579404
    potential(screened) =   -0.920777
       potential(ionic) =   -8.017759

SPLIT: Orbitals with angular momentum L= 2

SPLIT: Basis orbitals for state 5d

SPLIT: PAO cut-off radius determined from an
SPLIT: energy shift=  0.007350 Ry

   izeta = 1
                 lambda =    1.000000
                     rc =    5.044431
                 energy =   -0.446663
                kinetic =    4.610144
    potential(screened) =   -5.056807
       potential(ionic) =  -13.997492

   izeta = 2
                 rmatch =    3.021582
              splitnorm =    0.150000
                 energy =   -0.194009
                kinetic =    6.450170
    potential(screened) =   -6.644179
       potential(ionic) =  -16.245470

POLgen: Perturbative polarization orbital with L=  1

POLgen: Polarization orbital for state 6s

   izeta = 1
                     rc =    7.158402
                 energy =   -0.090110
                kinetic =    0.622430
    potential(screened) =   -0.712540
       potential(ionic) =   -6.949247
atom: Total number of Sankey-type orbitals: 15

atm_pop: Valence configuration (for local Pseudopot. screening):
 6s( 1.00)                                                            
 6p( 0.00)                                                            
 5d( 9.00)                                                            
Vna: chval, zval:   10.00000  10.00000

Vna:  Cut-off radius for the neutral-atom potential:   7.158402
comcore: Pseudo-core radius Rcore=  4.130025

atom: _________________________________________________________________________

prinput: Basis input ----------------------------------------------------------

PAO.BasisType split     

%block ChemicalSpeciesLabel
    1   78 Pt_SOC                  # Species index, atomic number, species label
%endblock ChemicalSpeciesLabel

%block PAO.Basis                 # Define Basis set
Pt_SOC                2                    # Species label, number of l-shells
 n=6   0   2 P   1                   # n, l, Nzeta, Polarization, NzetaPol
   7.158      6.009   
   1.000      1.000   
 n=5   2   2                         # n, l, Nzeta 
   5.044      3.022   
   1.000      1.000   
%endblock PAO.Basis

prinput: ----------------------------------------------------------------------

Dumping basis to NetCDF file Pt_SOC.ion.nc
coor:   Atomic-coordinates input format  =     Cartesian coordinates
coor:                                          (in Angstroms)

siesta: Atomic coordinates (Bohr) and species
siesta:     -2.26654   0.00000   0.00000  1        1
siesta:      2.26654   0.00000   0.00000  1        2

siesta: System type = molecule  

initatomlists: Number of atoms, orbitals, and projectors:      2    30    32

siesta: ******************** Simulation parameters ****************************
siesta:
siesta: The following are some of the parameters of the simulation.
siesta: A complete list of the parameters used, including default values,
siesta: can be found in file out.fdf
siesta:
redata: Spin configuration                          = spin-orbit
redata: Number of spin components                   = 8
redata: Time-Reversal Symmetry                      = F
redata: Spin spiral                                 = F
############################################################
This spin-orbit implementation uses a local approximation.
From 4.2 and onwards the full non-local approximation is implemented
You are strongly advised to use >=4.2 versions!
############################################################
redata: Long output                                 =   F
redata: Number of Atomic Species                    =        1
redata: Charge density info will appear in .RHO file
redata: Write Mulliken Pop.                         = Atomic and Orbital charges
redata: Matel table size (NRTAB)                    =     1024
redata: Mesh Cutoff                                 =   300.0000 Ry
redata: Net charge of the system                    =     0.0000 |e|
redata: Min. number of SCF Iter                     =        0
redata: Max. number of SCF Iter                     =     1000
redata: SCF convergence failure will abort job
redata: SCF mix quantity                            = Hamiltonian
redata: Mix DM or H after convergence               =   F
redata: Recompute H after scf cycle                 =   F
redata: Mix DM in first SCF step                    =   T
redata: Write Pulay info on disk                    =   F
redata: New DM Occupancy tolerance                  = 0.000000000001
redata: Kick with linear mixing every               =       50 iterations
redata: DM Mixing Weight for Kicks                  =     0.5000
redata: Require Harris convergence for SCF          =   F
redata: Harris energy tolerance for SCF             =     0.000100 eV
redata: Require DM convergence for SCF              =   T
redata: DM tolerance for SCF                        =     0.000010
redata: Require EDM convergence for SCF             =   F
redata: EDM tolerance for SCF                       =     0.001000 eV
redata: Require H convergence for SCF               =   T
redata: Hamiltonian tolerance for SCF               =     0.001000 eV
redata: Require (free) Energy convergence for SCF   =   F
redata: (free) Energy tolerance for SCF             =     0.000100 eV
redata: Using Saved Data (generic)                  =   F
redata: Use continuation files for DM               =   F
redata: Neglect nonoverlap interactions             =   F
redata: Method of Calculation                       = Diagonalization
redata: Electronic Temperature                      =   580.2219 K
redata: Fix the spin of the system                  =   F
redata: Dynamics option                             = Single-point calculation
mix.SCF: Pulay mixing                            = Pulay
mix.SCF:    Variant                              = stable
mix.SCF:    History steps                        = 5
mix.SCF:    Linear mixing weight                 =     0.010000
mix.SCF:    Mixing weight                        =     0.010000
mix.SCF:    SVD condition                        = 0.1000E-07
mix.SCF:    Restart steps                        = 49
mix.SCF:    Restart save steps                   = 1
mix.SCF:    Number of mixing iterations          = 49
mix.SCF:    Following mixer                      = Linear-Kick
mix.SCF: Linear mixing                           = Linear-Kick
mix.SCF:    Mixing weight                        =     0.500000
mix.SCF:    Number of mixing iterations          = 1
mix.SCF:    Following mixer                      = Pulay
mix.SCF: Spin-component mixing                   all
redata: Save all siesta data in one NC              =   F
redata: ***********************************************************************

%block SCF.Mixers
  Pulay
  Linear-Kick
%endblock SCF.Mixers

%block SCF.Mixer.Pulay
  # Mixing method
  method pulay
  variant stable

  # Mixing options
  weight 0.0100
  weight.linear 0.0100
  history 5
  restart 49
  restart.save 1

  # Continuation options
  iterations 49
  next Linear-Kick
%endblock SCF.Mixer.Pulay

%block SCF.Mixer.Linear-Kick
  # Mixing method
  method linear

  # Mixing options
  weight 0.5000

  # Continuation options
  iterations 1
  next Pulay
%endblock SCF.Mixer.Linear-Kick

DM_history_depth set to one: no extrapolation allowed by default for geometry relaxation
Size of DM history Fstack: 1
Total number of electrons:    20.000000
Total ionic charge:    20.000000

* ProcessorY, Blocksize:    2   4


* Orbital distribution balance (max,min):     4     2


Time-reversal symmetry not used.

siesta: k-grid: Number of k-points =     1
siesta: k-grid: Cutoff (effective) =    10.000 Ang
siesta: k-grid: Supercell and displacements
siesta: k-grid:    1   0   0      0.000
siesta: k-grid:    0   1   0      0.000
siesta: k-grid:    0   0   1      0.000

diag: Algorithm                                     = D&C
diag: Parallel over k                               =   F
diag: Use parallel 2D distribution                  =   T
diag: Parallel block-size                           = 4
diag: Parallel distribution                         =     2 x     4
diag: Used triangular part                          = Lower
diag: Absolute tolerance                            =  0.100E-15
diag: Orthogonalization factor                      =  0.100E-05
diag: Memory factor                                 =  1.0000


ts: **************************************************************
ts: Save H and S matrices                           =    F
ts: Save DM and EDM matrices                        =    F
ts: Only save the overlap matrix S                  =    F
ts: **************************************************************

************************ Begin: TS CHECKS AND WARNINGS ************************
************************ End: TS CHECKS AND WARNINGS **************************


                     ====================================
                        Single-point calculation
                     ====================================

outcoor: Atomic coordinates (Ang):                          
   -1.19940000    0.00000000    0.00000000   1       1  Pt_SOC
    1.19940000    0.00000000    0.00000000   1       2  Pt_SOC

outcell: Unit cell vectors (Ang):
       20.000000    0.000000    0.000000
        0.000000   20.000000    0.000000
        0.000000    0.000000   20.000000

outcell: Cell vector modules (Ang)   :   20.000000   20.000000   20.000000
outcell: Cell angles (23,13,12) (deg):     90.0000     90.0000     90.0000
outcell: Cell volume (Ang**3)        :   8000.0000
<dSpData1D:S at geom step 0
  <sparsity:sparsity for geom step 0
    nrows_g=30 nrows=4 sparsity=.1333 nnzs=120, refcount: 8>
  <dData1D:(new from dSpData1D) n=120, refcount: 1>
refcount: 1>
new_DM -- step:     1
Initializing Density Matrix...
DM filled with atomic data (user-defined):
<dSpData2D:DM initialized from atoms
  <sparsity:sparsity for geom step 0
    nrows_g=30 nrows=4 sparsity=.1333 nnzs=120, refcount: 9>
  <dData2D:DM n=120 m=8, refcount: 1>
refcount: 1>
     spin moment: S , {S} =    2.00000   0.00000   0.00000   2.00000
No. of atoms with KB's overlaping orbs in proc 0. Max # of overlaps:       2      30

Initializing spin-orbit part of the Hamiltonian
  Adding spin-orbit effects for Pt


New grid distribution:   1
           1       1:  108    1:   54    1:   27
           2       1:  108    1:   54   28:   54
           3       1:  108    1:   54   55:   81
           4       1:  108    1:   54   82:  108
           5       1:  108   55:  108    1:   27
           6       1:  108   55:  108   28:   54
           7       1:  108   55:  108   55:   81
           8       1:  108   55:  108   82:  108

InitMesh: MESH =   216 x   216 x   216 =    10077696
InitMesh: (bp) =   108 x   108 x   108 =     1259712
InitMesh: Mesh cutoff (required, used) =   300.000   322.366 Ry
ExtMesh (bp) on 0 =   192 x   138 x   111 =     2941056
New grid distribution:   2
           1      43:  108    1:   43    1:   45
           2       1:   47    1:   47   46:  108
           3       1:   48   48:  108   46:  108
           4      48:  108    1:   47   46:  108
           5      48:  108   44:  108    1:   45
           6       1:   47   44:  108    1:   45
           7      49:  108   48:  108   46:  108
           8       1:   42    1:   43    1:   45
New grid distribution:   3
           1      28:  108    1:   30    1:   37
           2       1:   44    1:   41   38:  108
           3       1:   48   42:  108   38:  108
           4      45:  108    1:   41   38:  108
           5      45:  108   31:  108    1:   37
           6       1:   44   31:  108    1:   37
           7      49:  108   42:  108   38:  108
           8       1:   27    1:   30    1:   37
Setting up quadratic distribution...
ExtMesh (bp) on 0 =   150 x   127 x   129 =     2457450
PhiOnMesh: Number of (b)points on node 0 =               127710
PhiOnMesh: nlist on node 0 =                65955

stepf: Fermi-Dirac step function

siesta: Program's energy decomposition (eV):
siesta: Ebs     =      -169.462475
siesta: Eions   =      1671.574203
siesta: Ena     =        29.270178
siesta: Ekin    =      1013.906475
siesta: Enl     =      -503.377064
siesta: Eso     =        -1.481185
siesta: Edftu   =         0.000000
siesta: DEna    =        18.327201
siesta: DUscf   =         6.863915
siesta: DUext   =         0.000000
siesta: Exc     =     -1693.282186
siesta: eta*DQ  =         0.000000
siesta: Emadel  =         0.000000
siesta: Emeta   =         0.000000
siesta: Emolmec =         0.000000
siesta: Ekinion =         0.000000
siesta: Eharris =     -2796.963782
siesta: Etot    =     -2801.346868
siesta: FreeEng =     -2801.349417

        iscf     Eharris(eV)        E_KS(eV)     FreeEng(eV)     dDmax    Ef(eV) dHmax(eV)
   scf:    1    -2796.963782    -2801.346868    -2801.349417  0.650249 -3.047245  6.168858
     spin moment: S , {S} =    1.22091   0.00000  -0.00000   1.22091
timer: Routine,Calls,Time,% = IterSCF        1       3.151  64.08
   scf:    2    -2801.613774    -2801.480870    -2801.483654  0.013344 -3.092346  5.997139
     spin moment: S , {S} =    1.22182  -0.00000  -0.00000   1.22182
   scf:    3    -2805.336975    -2804.453636    -2804.554760  0.469196 -4.507690  0.963184
     spin moment: S , {S} =    1.19688  -0.00000  -0.00000   1.19688
   scf:    4    -2803.574508    -2804.118797    -2804.170272  0.110988 -4.123524  1.209097
     spin moment: S , {S} =    1.23346  -0.00000  -0.00000   1.23346
   scf:    5    -2804.290047    -2804.376293    -2804.477798  0.150236 -4.809369  1.829318
     spin moment: S , {S} =    1.22566   0.00000  -0.00000   1.22566
   scf:    6    -2800.573515    -2803.268756    -2803.428058  0.461789 -3.553431  3.923434
     spin moment: S , {S} =    1.54238  -0.00000  -0.00000   1.54238
   scf:    7    -2804.949606    -2804.498645    -2804.636787  0.409564 -4.178183  0.158969
     spin moment: S , {S} =    1.03715  -0.00000  -0.00000   1.03715
   scf:    8    -2804.474482    -2804.487447    -2804.627440  0.016026 -4.108705  0.285121
     spin moment: S , {S} =    1.01585  -0.00000  -0.00000   1.01585
   scf:    9    -2804.478364    -2804.482949    -2804.622787  0.014303 -4.070515  0.381363
     spin moment: S , {S} =    0.95448  -0.00000  -0.00000   0.95448
   scf:   10    -2804.468324    -2804.511691    -2804.625877  0.091834 -4.357087  0.543863
     spin moment: S , {S} =    1.04817  -0.00000  -0.00000   1.04817
   scf:   11    -2804.523745    -2804.523718    -2804.651282  0.041159 -4.204344  0.083167
     spin moment: S , {S} =    0.98497  -0.00000  -0.00000   0.98497
   scf:   12    -2804.521929    -2804.523780    -2804.646909  0.011102 -4.201035  0.077883
     spin moment: S , {S} =    0.99399   0.00000  -0.00000   0.99399
   scf:   13    -2804.420385    -2804.491089    -2804.629615  0.067371 -4.151910  0.134215
     spin moment: S , {S} =    0.87714  -0.00000  -0.00000   0.87714
   scf:   14    -2804.535790    -2804.523797    -2804.652736  0.043796 -4.187676  0.020138
     spin moment: S , {S} =    0.93784  -0.00000  -0.00000   0.93784
   scf:   15    -2804.513993    -2804.519683    -2804.652056  0.016398 -4.179438  0.056652
     spin moment: S , {S} =    0.90171  -0.00000  -0.00000   0.90171
   scf:   16    -2804.525792    -2804.523286    -2804.652940  0.013454 -4.186166  0.026398
     spin moment: S , {S} =    0.93201  -0.00000  -0.00000   0.93201
   scf:   17    -2804.523389    -2804.523337    -2804.652957  0.000184 -4.186249  0.025946
     spin moment: S , {S} =    0.93117  -0.00000  -0.00000   0.93117
   scf:   18    -2804.523543    -2804.523436    -2804.653067  0.001260 -4.186483  0.025101
     spin moment: S , {S} =    0.92666  -0.00000  -0.00000   0.92666
   scf:   19    -2804.524046    -2804.523728    -2804.653282  0.002236 -4.188022  0.025198
     spin moment: S , {S} =    0.91833  -0.00000  -0.00000   0.91833
   scf:   20    -2804.524105    -2804.523908    -2804.653470  0.002122 -4.189118  0.026288
     spin moment: S , {S} =    0.91121  -0.00000  -0.00000   0.91121
   scf:   21    -2804.524000    -2804.523953    -2804.653521  0.000588 -4.189371  0.026645
     spin moment: S , {S} =    0.90954  -0.00000  -0.00000   0.90954
   scf:   22    -2804.524496    -2804.524218    -2804.653682  0.001695 -4.190436  0.026754
     spin moment: S , {S} =    0.90540  -0.00000  -0.00000   0.90540
   scf:   23    -2804.524315    -2804.524267    -2804.653709  0.000300 -4.190727  0.027030
     spin moment: S , {S} =    0.90532  -0.00000  -0.00000   0.90532
   scf:   24    -2804.524390    -2804.524329    -2804.653753  0.000538 -4.191154  0.027692
     spin moment: S , {S} =    0.90590  -0.00000  -0.00000   0.90590
   scf:   25    -2804.524288    -2804.524309    -2804.653752  0.000179 -4.190974  0.027628
     spin moment: S , {S} =    0.90685  -0.00000  -0.00000   0.90685
   scf:   26    -2804.524374    -2804.524341    -2804.653767  0.000149 -4.191027  0.027348
     spin moment: S , {S} =    0.90673  -0.00000  -0.00000   0.90673
   scf:   27    -2804.524430    -2804.524385    -2804.653800  0.000333 -4.191173  0.027281
     spin moment: S , {S} =    0.90585  -0.00000  -0.00000   0.90585
   scf:   28    -2804.524492    -2804.524438    -2804.653847  0.000495 -4.191371  0.027368
     spin moment: S , {S} =    0.90449  -0.00000  -0.00000   0.90449
   scf:   29    -2804.524338    -2804.524388    -2804.653810  0.000373 -4.191203  0.027344
     spin moment: S , {S} =    0.90552  -0.00000  -0.00000   0.90552
   scf:   30    -2804.524368    -2804.524378    -2804.653805  0.000048 -4.191164  0.027345
     spin moment: S , {S} =    0.90569  -0.00000  -0.00000   0.90569
   scf:   31    -2804.524341    -2804.524360    -2804.653799  0.000071 -4.191039  0.027261
     spin moment: S , {S} =    0.90615  -0.00000  -0.00000   0.90615
   scf:   32    -2804.524301    -2804.524331    -2804.653785  0.000140 -4.190986  0.027481
     spin moment: S , {S} =    0.90625  -0.00000  -0.00000   0.90625
   scf:   33    -2804.524377    -2804.524354    -2804.653802  0.000175 -4.191066  0.027476
     spin moment: S , {S} =    0.90585  -0.00000  -0.00000   0.90585
   scf:   34    -2804.524126    -2804.524239    -2804.653704  0.001062 -4.190619  0.027180
     spin moment: S , {S} =    0.90836  -0.00000  -0.00000   0.90836
   scf:   35    -2804.524095    -2804.524167    -2804.653654  0.000546 -4.190371  0.027059
     spin moment: S , {S} =    0.90952  -0.00000   0.00000   0.90952
   scf:   36    -2804.523987    -2804.524077    -2804.653610  0.000426 -4.190035  0.026960
     spin moment: S , {S} =    0.91057  -0.00000   0.00000   0.91057
   scf:   37    -2804.524051    -2804.524064    -2804.653608  0.000040 -4.189956  0.026856
     spin moment: S , {S} =    0.91072  -0.00000   0.00000   0.91072
   scf:   38    -2804.524199    -2804.524131    -2804.653643  0.000334 -4.190126  0.026248
     spin moment: S , {S} =    0.91001  -0.00000   0.00000   0.91001
   scf:   39    -2804.524203    -2804.524166    -2804.653670  0.000289 -4.190267  0.026226
     spin moment: S , {S} =    0.90927  -0.00000   0.00000   0.90927
   scf:   40    -2804.524371    -2804.524267    -2804.653758  0.000959 -4.190681  0.026477
     spin moment: S , {S} =    0.90692  -0.00000  -0.00000   0.90692
   scf:   41    -2804.524110    -2804.524188    -2804.653705  0.000579 -4.190423  0.026345
     spin moment: S , {S} =    0.90812  -0.00000   0.00000   0.90812
   scf:   42    -2804.524193    -2804.524191    -2804.653706  0.000011 -4.190433  0.026347
     spin moment: S , {S} =    0.90809  -0.00000   0.00000   0.90809
   scf:   43    -2804.524278    -2804.524233    -2804.653714  0.000238 -4.190917  0.026735
     spin moment: S , {S} =    0.90671  -0.00000  -0.00000   0.90671
   scf:   44    -2804.524130    -2804.524182    -2804.653689  0.000251 -4.190843  0.027081
     spin moment: S , {S} =    0.90691  -0.00000  -0.00000   0.90691
   scf:   45    -2804.523802    -2804.523989    -2804.653545  0.001602 -4.190166  0.027015
     spin moment: S , {S} =    0.91030  -0.00000  -0.00000   0.91030
   scf:   46    -2804.523809    -2804.523899    -2804.653467  0.000933 -4.189834  0.026690
     spin moment: S , {S} =    0.91211  -0.00000  -0.00000   0.91211
   scf:   47    -2804.522967    -2804.523402    -2804.653164  0.004234 -4.188720  0.024843
     spin moment: S , {S} =    0.91565   0.00000   0.00000   0.91565
   scf:   48    -2804.523251    -2804.523326    -2804.653138  0.000533 -4.188543  0.024543
     spin moment: S , {S} =    0.91565   0.00000   0.00000   0.91565
   scf:   49    -2804.523171    -2804.523250    -2804.653149  0.000414 -4.188232  0.023267
     spin moment: S , {S} =    0.91498   0.00000   0.00000   0.91498
mix: Pulay -- resetting history
mix: switching mixer --> Linear-Kick
   scf:   50    -2804.523375    -2804.523312    -2804.653186  0.000396 -4.188508  0.022536
     spin moment: S , {S} =    0.91380   0.00000   0.00000   0.91380
mix: switching mixer --> Pulay
   scf:   51    -2804.524396    -2804.523747    -2804.653948  0.010429 -4.192282  0.025733
     spin moment: S , {S} =    0.88719   0.00000  -0.00000   0.88719
   scf:   52    -2804.523145    -2804.523402    -2804.653418  0.007138 -4.189623  0.024023
     spin moment: S , {S} =    0.90561   0.00000   0.00000   0.90561
   scf:   53    -2804.524813    -2804.524065    -2804.653849  0.004923 -4.191585  0.020805
     spin moment: S , {S} =    0.89446   0.00000   0.00000   0.89446
   scf:   54    -2804.522947    -2804.523501    -2804.653636  0.002470 -4.190731  0.024401
     spin moment: S , {S} =    0.89724   0.00000  -0.00000   0.89724
   scf:   55    -2804.522012    -2804.522624    -2804.653022  0.009332 -4.187216  0.020025
     spin moment: S , {S} =    0.91043  -0.00000  -0.00000   0.91043
   scf:   56    -2804.522462    -2804.522543    -2804.652949  0.000506 -4.186118  0.022456
     spin moment: S , {S} =    0.91519   0.00000  -0.00000   0.91519
   scf:   57    -2804.523370    -2804.522786    -2804.653462  0.007679 -4.197945  0.018337
     spin moment: S , {S} =    0.86639  -0.00000   0.00000   0.86639
   scf:   58    -2804.522739    -2804.522750    -2804.653448  0.002472 -4.199005  0.016645
     spin moment: S , {S} =    0.86292  -0.00000   0.00000   0.86292
   scf:   59    -2804.522936    -2804.522812    -2804.653438  0.003760 -4.200048  0.011556
     spin moment: S , {S} =    0.86008  -0.00000   0.00000   0.86008
   scf:   60    -2804.523044    -2804.522887    -2804.653567  0.005008 -4.202022  0.011822
     spin moment: S , {S} =    0.85023  -0.00000   0.00000   0.85023
   scf:   61    -2804.522900    -2804.522892    -2804.653597  0.001000 -4.202258  0.012286
     spin moment: S , {S} =    0.84869  -0.00000   0.00000   0.84869
   scf:   62    -2804.522681    -2804.522786    -2804.653628  0.000640 -4.202353  0.013732
     spin moment: S , {S} =    0.84660  -0.00000   0.00000   0.84660
   scf:   63    -2804.522598    -2804.522596    -2804.653896  0.005309 -4.206726  0.013726
     spin moment: S , {S} =    0.81730  -0.00000   0.00000   0.81730
   scf:   64    -2804.522910    -2804.522730    -2804.654025  0.001652 -4.209511  0.011215
     spin moment: S , {S} =    0.80247  -0.00000   0.00000   0.80247
   scf:   65    -2804.522742    -2804.522735    -2804.654033  0.000127 -4.209548  0.011142
     spin moment: S , {S} =    0.80197  -0.00000   0.00000   0.80197
   scf:   66    -2804.523018    -2804.522855    -2804.654168  0.001893 -4.210058  0.009609
     spin moment: S , {S} =    0.79524  -0.00000   0.00000   0.79524
   scf:   67    -2804.522856    -2804.522856    -2804.654162  0.000151 -4.209967  0.009664
     spin moment: S , {S} =    0.79586  -0.00000   0.00000   0.79586
   scf:   68    -2804.522815    -2804.522826    -2804.654231  0.001220 -4.211305  0.009515
     spin moment: S , {S} =    0.78689  -0.00000   0.00000   0.78689
   scf:   69    -2804.522725    -2804.522776    -2804.654149  0.001189 -4.209762  0.010326
     spin moment: S , {S} =    0.79615  -0.00000   0.00000   0.79615
   scf:   70    -2804.522857    -2804.522814    -2804.654177  0.000415 -4.210217  0.009944
     spin moment: S , {S} =    0.79372  -0.00000   0.00000   0.79372
   scf:   71    -2804.522501    -2804.522646    -2804.654195  0.001810 -4.211691  0.010149
     spin moment: S , {S} =    0.78046  -0.00000   0.00000   0.78046
   scf:   72    -2804.522656    -2804.522651    -2804.654197  0.000066 -4.211657  0.010212
     spin moment: S , {S} =    0.78063  -0.00000   0.00000   0.78063
   scf:   73    -2804.522431    -2804.522527    -2804.654129  0.002720 -4.212270  0.008464
     spin moment: S , {S} =    0.77831  -0.00000   0.00000   0.77831
   scf:   74    -2804.522516    -2804.522520    -2804.654141  0.000264 -4.212542  0.008327
     spin moment: S , {S} =    0.77644  -0.00000   0.00000   0.77644
   scf:   75    -2804.522535    -2804.522528    -2804.654102  0.001060 -4.211947  0.008848
     spin moment: S , {S} =    0.78077  -0.00000   0.00000   0.78077
   scf:   76    -2804.522560    -2804.522544    -2804.654103  0.000191 -4.211815  0.008649
     spin moment: S , {S} =    0.78190  -0.00000   0.00000   0.78190
   scf:   77    -2804.522515    -2804.522529    -2804.654104  0.000173 -4.211954  0.008757
     spin moment: S , {S} =    0.78070  -0.00000   0.00000   0.78070
   scf:   78    -2804.522522    -2804.522522    -2804.654095  0.000993 -4.211988  0.008418
     spin moment: S , {S} =    0.78036  -0.00000   0.00000   0.78036
   scf:   79    -2804.522527    -2804.522524    -2804.654095  0.000059 -4.211922  0.008431
     spin moment: S , {S} =    0.78074  -0.00000   0.00000   0.78074
   scf:   80    -2804.522526    -2804.522525    -2804.654099  0.000102 -4.211973  0.008374
     spin moment: S , {S} =    0.78033  -0.00000   0.00000   0.78033
   scf:   81    -2804.522524    -2804.522524    -2804.654096  0.000091 -4.211932  0.008437
     spin moment: S , {S} =    0.78064  -0.00000   0.00000   0.78064
   scf:   82    -2804.522528    -2804.522526    -2804.654097  0.000046 -4.211932  0.008438
     spin moment: S , {S} =    0.78067  -0.00000   0.00000   0.78067
   scf:   83    -2804.522518    -2804.522522    -2804.654098  0.000081 -4.211981  0.008443
     spin moment: S , {S} =    0.78028  -0.00000   0.00000   0.78028
   scf:   84    -2804.522522    -2804.522522    -2804.654099  0.000067 -4.211982  0.008422
     spin moment: S , {S} =    0.78029  -0.00000   0.00000   0.78029
   scf:   85    -2804.522522    -2804.522522    -2804.654099  0.000027 -4.211971  0.008447
     spin moment: S , {S} =    0.78029  -0.00000   0.00000   0.78029
   scf:   86    -2804.522519    -2804.522520    -2804.654103  0.000092 -4.212074  0.008378
     spin moment: S , {S} =    0.77963  -0.00000   0.00000   0.77963
   scf:   87    -2804.522521    -2804.522521    -2804.654097  0.000121 -4.211977  0.008452
     spin moment: S , {S} =    0.78031  -0.00000   0.00000   0.78031
   scf:   88    -2804.522496    -2804.522509    -2804.654096  0.000153 -4.212098  0.008503
     spin moment: S , {S} =    0.77947  -0.00000   0.00000   0.77947
   scf:   89    -2804.522485    -2804.522497    -2804.654100  0.000283 -4.212236  0.008513
     spin moment: S , {S} =    0.77844  -0.00000   0.00000   0.77844
   scf:   90    -2804.522503    -2804.522500    -2804.654105  0.000436 -4.212249  0.008381
     spin moment: S , {S} =    0.77847  -0.00000   0.00000   0.77847
   scf:   91    -2804.522501    -2804.522500    -2804.654105  0.000014 -4.212247  0.008396
     spin moment: S , {S} =    0.77847  -0.00000   0.00000   0.77847
   scf:   92    -2804.522456    -2804.522478    -2804.654104  0.000349 -4.212423  0.008339
     spin moment: S , {S} =    0.77722  -0.00000   0.00000   0.77722
   scf:   93    -2804.522470    -2804.522473    -2804.654108  0.000140 -4.212510  0.008260
     spin moment: S , {S} =    0.77655  -0.00000   0.00000   0.77655
   scf:   94    -2804.522489    -2804.522480    -2804.654114  0.000268 -4.212561  0.008042
     spin moment: S , {S} =    0.77640  -0.00000   0.00000   0.77640
   scf:   95    -2804.522480    -2804.522480    -2804.654115  0.000043 -4.212565  0.008056
     spin moment: S , {S} =    0.77635  -0.00000   0.00000   0.77635
   scf:   96    -2804.522434    -2804.522455    -2804.654097  0.000903 -4.212548  0.008102
     spin moment: S , {S} =    0.77624  -0.00000   0.00000   0.77624
   scf:   97    -2804.522463    -2804.522459    -2804.654098  0.000061 -4.212508  0.008215
     spin moment: S , {S} =    0.77643  -0.00000   0.00000   0.77643
   scf:   98    -2804.522529    -2804.522494    -2804.654096  0.000392 -4.212120  0.008491
     spin moment: S , {S} =    0.77902  -0.00000   0.00000   0.77902
   scf:   99    -2804.522507    -2804.522501    -2804.654090  0.000164 -4.211966  0.008475
     spin moment: S , {S} =    0.78008  -0.00000   0.00000   0.78008
mix: Pulay -- resetting history
mix: switching mixer --> Linear-Kick
   scf:  100    -2804.522506    -2804.522503    -2804.654088  0.000198 -4.211821  0.008516
     spin moment: S , {S} =    0.78083  -0.00000   0.00000   0.78083
mix: switching mixer --> Pulay
   scf:  101    -2804.523244    -2804.522783    -2804.654413  0.004629 -4.212972  0.011617
     spin moment: S , {S} =    0.77132  -0.00000   0.00000   0.77132
   scf:  102    -2804.522311    -2804.522501    -2804.654090  0.004463 -4.211968  0.008445
     spin moment: S , {S} =    0.78007  -0.00000   0.00000   0.78007
   scf:  103    -2804.522491    -2804.522496    -2804.654088  0.000077 -4.211980  0.008380
     spin moment: S , {S} =    0.78001  -0.00000   0.00000   0.78001
   scf:  104    -2804.522317    -2804.522404    -2804.654061  0.001513 -4.212390  0.007746
     spin moment: S , {S} =    0.77761  -0.00000   0.00000   0.77761
   scf:  105    -2804.522347    -2804.522367    -2804.654109  0.002482 -4.213114  0.008946
     spin moment: S , {S} =    0.77217  -0.00000   0.00000   0.77217
   scf:  106    -2804.522531    -2804.522442    -2804.654155  0.001858 -4.213220  0.008935
     spin moment: S , {S} =    0.76979  -0.00000   0.00000   0.76979
   scf:  107    -2804.522446    -2804.522444    -2804.654155  0.000045 -4.213198  0.008948
     spin moment: S , {S} =    0.77000  -0.00000   0.00000   0.77000
   scf:  108    -2804.522064    -2804.522242    -2804.654095  0.002461 -4.213772  0.007851
     spin moment: S , {S} =    0.76275  -0.00000   0.00000   0.76275
   scf:  109    -2804.522224    -2804.522229    -2804.654106  0.000788 -4.213878  0.007565
     spin moment: S , {S} =    0.76123  -0.00000   0.00000   0.76123
   scf:  110    -2804.522230    -2804.522229    -2804.654112  0.000158 -4.213932  0.007523
     spin moment: S , {S} =    0.76072  -0.00000   0.00000   0.76072
   scf:  111    -2804.521275    -2804.521622    -2804.654085  0.007397 -4.219999  0.007483
     spin moment: S , {S} =    0.71248  -0.00000  -0.00000   0.71248
   scf:  112    -2804.521502    -2804.521559    -2804.654077  0.000794 -4.220622  0.007144
     spin moment: S , {S} =    0.70762  -0.00000  -0.00000   0.70762
   scf:  113    -2804.521352    -2804.521450    -2804.654061  0.001415 -4.221933  0.005808
     spin moment: S , {S} =    0.69859  -0.00000  -0.00000   0.69859
   scf:  114    -2804.521581    -2804.521512    -2804.654100  0.001477 -4.222144  0.005815
     spin moment: S , {S} =    0.69939  -0.00000  -0.00000   0.69939
   scf:  115    -2804.521408    -2804.521457    -2804.654106  0.000888 -4.222937  0.005537
     spin moment: S , {S} =    0.69353  -0.00000  -0.00000   0.69353
   scf:  116    -2804.521400    -2804.521425    -2804.654115  0.000821 -4.223281  0.005057
     spin moment: S , {S} =    0.69046  -0.00000  -0.00000   0.69046
   scf:  117    -2804.521427    -2804.521426    -2804.654116  0.000081 -4.223286  0.005017
     spin moment: S , {S} =    0.69047  -0.00000  -0.00000   0.69047
   scf:  118    -2804.521248    -2804.521332    -2804.654093  0.001378 -4.224517  0.004595
     spin moment: S , {S} =    0.68290  -0.00000  -0.00000   0.68290
   scf:  119    -2804.521199    -2804.521262    -2804.654074  0.001065 -4.225177  0.004160
     spin moment: S , {S} =    0.67800  -0.00000  -0.00000   0.67800
   scf:  120    -2804.521190    -2804.521224    -2804.654058  0.000774 -4.225410  0.003651
     spin moment: S , {S} =    0.67611  -0.00000  -0.00000   0.67611
   scf:  121    -2804.521267    -2804.521246    -2804.654060  0.000269 -4.225219  0.003619
     spin moment: S , {S} =    0.67809  -0.00000  -0.00000   0.67809
   scf:  122    -2804.521225    -2804.521236    -2804.654059  0.000519 -4.225470  0.003544
     spin moment: S , {S} =    0.67695  -0.00000  -0.00000   0.67695
   scf:  123    -2804.521204    -2804.521219    -2804.654060  0.000266 -4.225669  0.003552
     spin moment: S , {S} =    0.67551  -0.00000  -0.00000   0.67551
   scf:  124    -2804.521197    -2804.521208    -2804.654077  0.000645 -4.225730  0.003482
     spin moment: S , {S} =    0.67463  -0.00000  -0.00000   0.67463
   scf:  125    -2804.521224    -2804.521216    -2804.654084  0.000199 -4.225721  0.003409
     spin moment: S , {S} =    0.67492  -0.00000  -0.00000   0.67492
   scf:  126    -2804.521212    -2804.521214    -2804.654085  0.000105 -4.225781  0.003354
     spin moment: S , {S} =    0.67455  -0.00000  -0.00000   0.67455
   scf:  127    -2804.521235    -2804.521225    -2804.654086  0.000132 -4.225663  0.003416
     spin moment: S , {S} =    0.67551  -0.00000  -0.00000   0.67551
   scf:  128    -2804.521226    -2804.521226    -2804.654087  0.000130 -4.225659  0.003460
     spin moment: S , {S} =    0.67560  -0.00000  -0.00000   0.67560
   scf:  129    -2804.521212    -2804.521219    -2804.654087  0.000107 -4.225691  0.003478
     spin moment: S , {S} =    0.67522  -0.00000  -0.00000   0.67522
   scf:  130    -2804.521234    -2804.521226    -2804.654093  0.000310 -4.225331  0.003506
     spin moment: S , {S} =    0.67694  -0.00000  -0.00000   0.67694
   scf:  131    -2804.521248    -2804.521238    -2804.654098  0.000210 -4.225236  0.003479
     spin moment: S , {S} =    0.67768  -0.00000  -0.00000   0.67768
   scf:  132    -2804.521239    -2804.521238    -2804.654097  0.000118 -4.225178  0.003527
     spin moment: S , {S} =    0.67804  -0.00000  -0.00000   0.67804
   scf:  133    -2804.521308    -2804.521273    -2804.654098  0.000422 -4.224700  0.003713
     spin moment: S , {S} =    0.68167  -0.00000  -0.00000   0.68167
   scf:  134    -2804.521269    -2804.521271    -2804.654094  0.000347 -4.224565  0.003785
     spin moment: S , {S} =    0.68242  -0.00000  -0.00000   0.68242
   scf:  135    -2804.521247    -2804.521259    -2804.654089  0.000136 -4.224517  0.003768
     spin moment: S , {S} =    0.68228  -0.00000  -0.00000   0.68228
   scf:  136    -2804.521267    -2804.521262    -2804.654080  0.000782 -4.223677  0.003694
     spin moment: S , {S} =    0.68622  -0.00000  -0.00000   0.68622
   scf:  137    -2804.521288    -2804.521275    -2804.654083  0.000217 -4.223539  0.003683
     spin moment: S , {S} =    0.68722  -0.00000  -0.00000   0.68722
   scf:  138    -2804.521277    -2804.521277    -2804.654084  0.000056 -4.223558  0.003681
     spin moment: S , {S} =    0.68712  -0.00000  -0.00000   0.68712
   scf:  139    -2804.521260    -2804.521268    -2804.654084  0.000141 -4.223693  0.003663
     spin moment: S , {S} =    0.68610  -0.00000  -0.00000   0.68610
   scf:  140    -2804.521274    -2804.521271    -2804.654084  0.000077 -4.223632  0.003704
     spin moment: S , {S} =    0.68650  -0.00000  -0.00000   0.68650
   scf:  141    -2804.521279    -2804.521275    -2804.654083  0.000080 -4.223537  0.003764
     spin moment: S , {S} =    0.68706  -0.00000  -0.00000   0.68706
   scf:  142    -2804.521317    -2804.521296    -2804.654082  0.000337 -4.223139  0.003900
     spin moment: S , {S} =    0.68953  -0.00000  -0.00000   0.68953
   scf:  143    -2804.521318    -2804.521307    -2804.654084  0.000151 -4.223060  0.003920
     spin moment: S , {S} =    0.69020  -0.00000  -0.00000   0.69020
   scf:  144    -2804.521302    -2804.521304    -2804.654082  0.000099 -4.223029  0.003913
     spin moment: S , {S} =    0.69033  -0.00000  -0.00000   0.69033
   scf:  145    -2804.521314    -2804.521309    -2804.654081  0.000118 -4.222933  0.003919
     spin moment: S , {S} =    0.69102  -0.00000  -0.00000   0.69102
   scf:  146    -2804.521318    -2804.521314    -2804.654078  0.000208 -4.222781  0.004008
     spin moment: S , {S} =    0.69191  -0.00000  -0.00000   0.69191
   scf:  147    -2804.521318    -2804.521316    -2804.654074  0.000173 -4.222651  0.004077
     spin moment: S , {S} =    0.69253  -0.00000  -0.00000   0.69253
   scf:  148    -2804.521350    -2804.521333    -2804.654069  0.000486 -4.222227  0.004167
     spin moment: S , {S} =    0.69497   0.00000  -0.00000   0.69497
   scf:  149    -2804.521374    -2804.521354    -2804.654073  0.000275 -4.222082  0.004202
     spin moment: S , {S} =    0.69625   0.00000  -0.00000   0.69625
mix: Pulay -- resetting history
mix: switching mixer --> Linear-Kick
   scf:  150    -2804.521360    -2804.521357    -2804.654074  0.000045 -4.222073  0.004219
     spin moment: S , {S} =    0.69637   0.00000  -0.00000   0.69637
mix: switching mixer --> Pulay
   scf:  151    -2804.521826    -2804.521575    -2804.654198  0.003454 -4.222738  0.005758
     spin moment: S , {S} =    0.69656   0.00000  -0.00000   0.69656
   scf:  152    -2804.521179    -2804.521354    -2804.654073  0.003469 -4.222083  0.004203
     spin moment: S , {S} =    0.69625   0.00000  -0.00000   0.69625
   scf:  153    -2804.521292    -2804.521319    -2804.654043  0.001079 -4.222055  0.004204
     spin moment: S , {S} =    0.69529  -0.00000  -0.00000   0.69529
   scf:  154    -2804.521327    -2804.521323    -2804.654044  0.000186 -4.221967  0.004427
     spin moment: S , {S} =    0.69555  -0.00000  -0.00000   0.69555
   scf:  155    -2804.521186    -2804.521227    -2804.654034  0.003206 -4.222843  0.003202
     spin moment: S , {S} =    0.69307  -0.00000  -0.00000   0.69307
   scf:  156    -2804.521269    -2804.521248    -2804.654048  0.000474 -4.223043  0.003200
     spin moment: S , {S} =    0.69271  -0.00000  -0.00000   0.69271
   scf:  157    -2804.521261    -2804.521254    -2804.654056  0.000242 -4.223129  0.002996
     spin moment: S , {S} =    0.69269  -0.00000  -0.00000   0.69269
   scf:  158    -2804.521269    -2804.521262    -2804.654060  0.000215 -4.223155  0.003051
     spin moment: S , {S} =    0.69263  -0.00000  -0.00000   0.69263
   scf:  159    -2804.521246    -2804.521254    -2804.654056  0.000251 -4.223133  0.002982
     spin moment: S , {S} =    0.69274  -0.00000  -0.00000   0.69274
   scf:  160    -2804.521268    -2804.521261    -2804.654062  0.000189 -4.223161  0.002939
     spin moment: S , {S} =    0.69291  -0.00000  -0.00000   0.69291
   scf:  161    -2804.521257    -2804.521259    -2804.654060  0.000037 -4.223146  0.002931
     spin moment: S , {S} =    0.69290  -0.00000  -0.00000   0.69290
   scf:  162    -2804.521262    -2804.521261    -2804.654061  0.000045 -4.223166  0.002974
     spin moment: S , {S} =    0.69285  -0.00000  -0.00000   0.69285
   scf:  163    -2804.521256    -2804.521258    -2804.654059  0.000049 -4.223153  0.002970
     spin moment: S , {S} =    0.69284  -0.00000  -0.00000   0.69284
   scf:  164    -2804.521262    -2804.521260    -2804.654060  0.000028 -4.223151  0.002992
     spin moment: S , {S} =    0.69284  -0.00000  -0.00000   0.69284
   scf:  165    -2804.521255    -2804.521257    -2804.654059  0.000055 -4.223151  0.002996
     spin moment: S , {S} =    0.69285  -0.00000  -0.00000   0.69285
   scf:  166    -2804.521260    -2804.521259    -2804.654058  0.000216 -4.223117  0.003071
     spin moment: S , {S} =    0.69298  -0.00000  -0.00000   0.69298
   scf:  167    -2804.521259    -2804.521259    -2804.654058  0.000010 -4.223122  0.003076
     spin moment: S , {S} =    0.69297  -0.00000  -0.00000   0.69297
   scf:  168    -2804.521258    -2804.521258    -2804.654058  0.000014 -4.223116  0.003060
     spin moment: S , {S} =    0.69296  -0.00000  -0.00000   0.69296
   scf:  169    -2804.521262    -2804.521260    -2804.654059  0.000041 -4.223125  0.003066
     spin moment: S , {S} =    0.69299  -0.00000  -0.00000   0.69299
   scf:  170    -2804.521257    -2804.521259    -2804.654057  0.000072 -4.223108  0.003036
     spin moment: S , {S} =    0.69295  -0.00000  -0.00000   0.69295
   scf:  171    -2804.521259    -2804.521259    -2804.654057  0.000022 -4.223105  0.003047
     spin moment: S , {S} =    0.69296  -0.00000  -0.00000   0.69296
   scf:  172    -2804.521261    -2804.521260    -2804.654058  0.000036 -4.223114  0.003015
     spin moment: S , {S} =    0.69293  -0.00000  -0.00000   0.69293
   scf:  173    -2804.521256    -2804.521258    -2804.654057  0.000048 -4.223096  0.003031
     spin moment: S , {S} =    0.69298  -0.00000  -0.00000   0.69298
   scf:  174    -2804.521262    -2804.521260    -2804.654058  0.000037 -4.223098  0.003024
     spin moment: S , {S} =    0.69302  -0.00000  -0.00000   0.69302
   scf:  175    -2804.521252    -2804.521256    -2804.654055  0.000083 -4.223088  0.003025
     spin moment: S , {S} =    0.69295  -0.00000  -0.00000   0.69295
   scf:  176    -2804.521248    -2804.521252    -2804.654045  0.000388 -4.222971  0.002999
     spin moment: S , {S} =    0.69301  -0.00000  -0.00000   0.69301
   scf:  177    -2804.521252    -2804.521252    -2804.654045  0.000035 -4.222968  0.002992
     spin moment: S , {S} =    0.69303  -0.00000  -0.00000   0.69303
   scf:  178    -2804.521257    -2804.521255    -2804.654048  0.000443 -4.222976  0.003278
     spin moment: S , {S} =    0.69332  -0.00000  -0.00000   0.69332
   scf:  179    -2804.521255    -2804.521255    -2804.654048  0.000009 -4.222975  0.003288
     spin moment: S , {S} =    0.69333  -0.00000  -0.00000   0.69333
   scf:  180    -2804.521323    -2804.521289    -2804.654075  0.000645 -4.223319  0.003272
     spin moment: S , {S} =    0.69302  -0.00000  -0.00000   0.69302
   scf:  181    -2804.521294    -2804.521291    -2804.654077  0.000061 -4.223325  0.003237
     spin moment: S , {S} =    0.69307  -0.00000  -0.00000   0.69307
   scf:  182    -2804.521294    -2804.521293    -2804.654078  0.000039 -4.223323  0.003209
     spin moment: S , {S} =    0.69311  -0.00000  -0.00000   0.69311
   scf:  183    -2804.521301    -2804.521296    -2804.654091  0.000446 -4.223525  0.003166
     spin moment: S , {S} =    0.69297  -0.00000  -0.00000   0.69297
   scf:  184    -2804.521296    -2804.521296    -2804.654090  0.000042 -4.223521  0.003175
     spin moment: S , {S} =    0.69295  -0.00000  -0.00000   0.69295
   scf:  185    -2804.521297    -2804.521296    -2804.654091  0.000144 -4.223534  0.003134
     spin moment: S , {S} =    0.69300  -0.00000  -0.00000   0.69300
   scf:  186    -2804.521297    -2804.521297    -2804.654092  0.000023 -4.223539  0.003173
     spin moment: S , {S} =    0.69301  -0.00000  -0.00000   0.69301
   scf:  187    -2804.521342    -2804.521320    -2804.654115  0.000391 -4.223960  0.003381
     spin moment: S , {S} =    0.69258  -0.00000  -0.00000   0.69258
   scf:  188    -2804.521325    -2804.521323    -2804.654117  0.000075 -4.223975  0.003330
     spin moment: S , {S} =    0.69262  -0.00000  -0.00000   0.69262
   scf:  189    -2804.521323    -2804.521323    -2804.654117  0.000008 -4.223972  0.003330
     spin moment: S , {S} =    0.69262  -0.00000  -0.00000   0.69262
   scf:  190    -2804.521323    -2804.521323    -2804.654117  0.000059 -4.223973  0.003343
     spin moment: S , {S} =    0.69259  -0.00000  -0.00000   0.69259
   scf:  191    -2804.521323    -2804.521323    -2804.654118  0.000108 -4.223982  0.003289
     spin moment: S , {S} =    0.69262  -0.00000  -0.00000   0.69262
   scf:  192    -2804.521321    -2804.521322    -2804.654117  0.000040 -4.223971  0.003335
     spin moment: S , {S} =    0.69266  -0.00000  -0.00000   0.69266
   scf:  193    -2804.521204    -2804.521255    -2804.654065  0.001659 -4.223457  0.002811
     spin moment: S , {S} =    0.69365  -0.00000  -0.00000   0.69365
   scf:  194    -2804.521257    -2804.521256    -2804.654065  0.000024 -4.223461  0.002787
     spin moment: S , {S} =    0.69370  -0.00000  -0.00000   0.69370
   scf:  195    -2804.521300    -2804.521279    -2804.654085  0.000588 -4.223572  0.002371
     spin moment: S , {S} =    0.69474  -0.00000  -0.00000   0.69474
   scf:  196    -2804.521269    -2804.521273    -2804.654084  0.000414 -4.223705  0.002304
     spin moment: S , {S} =    0.69405  -0.00000  -0.00000   0.69405
   scf:  197    -2804.521275    -2804.521274    -2804.654085  0.000087 -4.223686  0.002282
     spin moment: S , {S} =    0.69416  -0.00000  -0.00000   0.69416
   scf:  198    -2804.521273    -2804.521274    -2804.654084  0.000032 -4.223678  0.002292
     spin moment: S , {S} =    0.69418  -0.00000  -0.00000   0.69418
   scf:  199    -2804.521287    -2804.521280    -2804.654090  0.000184 -4.223780  0.002286
     spin moment: S , {S} =    0.69389  -0.00000  -0.00000   0.69389
mix: Pulay -- resetting history
mix: switching mixer --> Linear-Kick
   scf:  200    -2804.521279    -2804.521280    -2804.654096  0.000522 -4.224255  0.002359
     spin moment: S , {S} =    0.69279  -0.00000  -0.00000   0.69279
mix: switching mixer --> Pulay
   scf:  201    -2804.521500    -2804.521375    -2804.654169  0.002255 -4.224278  0.004134
     spin moment: S , {S} =    0.69290  -0.00000  -0.00000   0.69290
   scf:  202    -2804.521212    -2804.521278    -2804.654087  0.002904 -4.223753  0.002296
     spin moment: S , {S} =    0.69395  -0.00000  -0.00000   0.69395
   scf:  203    -2804.521240    -2804.521259    -2804.654088  0.000657 -4.224018  0.002607
     spin moment: S , {S} =    0.69304  -0.00000  -0.00000   0.69304
   scf:  204    -2804.521263    -2804.521260    -2804.654085  0.000346 -4.223916  0.002593
     spin moment: S , {S} =    0.69339  -0.00000  -0.00000   0.69339
   scf:  205    -2804.521240    -2804.521250    -2804.654080  0.000614 -4.223991  0.002369
     spin moment: S , {S} =    0.69296   0.00000  -0.00000   0.69296
   scf:  206    -2804.521279    -2804.521263    -2804.654084  0.000801 -4.223988  0.002667
     spin moment: S , {S} =    0.69265   0.00000  -0.00000   0.69265
   scf:  207    -2804.521264    -2804.521263    -2804.654083  0.000056 -4.223973  0.002683
     spin moment: S , {S} =    0.69268   0.00000  -0.00000   0.69268
   scf:  208    -2804.521247    -2804.521254    -2804.654075  0.000445 -4.223730  0.002551
     spin moment: S , {S} =    0.69358   0.00000  -0.00000   0.69358
   scf:  209    -2804.521253    -2804.521254    -2804.654074  0.000042 -4.223696  0.002591
     spin moment: S , {S} =    0.69373   0.00000  -0.00000   0.69373
   scf:  210    -2804.521268    -2804.521260    -2804.654068  0.000565 -4.223379  0.002497
     spin moment: S , {S} =    0.69512   0.00000  -0.00000   0.69512
   scf:  211    -2804.521260    -2804.521260    -2804.654068  0.000020 -4.223372  0.002484
     spin moment: S , {S} =    0.69517   0.00000  -0.00000   0.69517
   scf:  212    -2804.521262    -2804.521261    -2804.654069  0.000026 -4.223375  0.002519
     spin moment: S , {S} =    0.69519   0.00000  -0.00000   0.69519
   scf:  213    -2804.521260    -2804.521261    -2804.654068  0.000010 -4.223376  0.002517
     spin moment: S , {S} =    0.69519   0.00000  -0.00000   0.69519
   scf:  214    -2804.521261    -2804.521261    -2804.654069  0.000011 -4.223382  0.002509
     spin moment: S , {S} =    0.69517   0.00000  -0.00000   0.69517
   scf:  215    -2804.521261    -2804.521261    -2804.654068  0.000029 -4.223356  0.002538
     spin moment: S , {S} =    0.69528   0.00000  -0.00000   0.69528
   scf:  216    -2804.521260    -2804.521260    -2804.654068  0.000028 -4.223373  0.002541
     spin moment: S , {S} =    0.69520   0.00000  -0.00000   0.69520
   scf:  217    -2804.521260    -2804.521260    -2804.654069  0.000014 -4.223379  0.002544
     spin moment: S , {S} =    0.69518   0.00000  -0.00000   0.69518
   scf:  218    -2804.521261    -2804.521260    -2804.654069  0.000021 -4.223376  0.002569
     spin moment: S , {S} =    0.69522   0.00000  -0.00000   0.69522
   scf:  219    -2804.521261    -2804.521261    -2804.654069  0.000019 -4.223373  0.002571
     spin moment: S , {S} =    0.69523   0.00000  -0.00000   0.69523
   scf:  220    -2804.521261    -2804.521261    -2804.654069  0.000032 -4.223387  0.002556
     spin moment: S , {S} =    0.69518   0.00000  -0.00000   0.69518
   scf:  221    -2804.521260    -2804.521261    -2804.654069  0.000043 -4.223351  0.002595
     spin moment: S , {S} =    0.69534   0.00000  -0.00000   0.69534
   scf:  222    -2804.521260    -2804.521260    -2804.654069  0.000026 -4.223367  0.002598
     spin moment: S , {S} =    0.69527   0.00000  -0.00000   0.69527
   scf:  223    -2804.521260    -2804.521260    -2804.654069  0.000017 -4.223374  0.002599
     spin moment: S , {S} =    0.69523   0.00000  -0.00000   0.69523
   scf:  224    -2804.521261    -2804.521260    -2804.654069  0.000020 -4.223366  0.002621
     spin moment: S , {S} =    0.69530   0.00000  -0.00000   0.69530
   scf:  225    -2804.521262    -2804.521261    -2804.654070  0.000035 -4.223368  0.002648
     spin moment: S , {S} =    0.69534   0.00000  -0.00000   0.69534
   scf:  226    -2804.521261    -2804.521261    -2804.654070  0.000021 -4.223377  0.002641
     spin moment: S , {S} =    0.69530   0.00000  -0.00000   0.69530
   scf:  227    -2804.521261    -2804.521261    -2804.654069  0.000030 -4.223350  0.002669
     spin moment: S , {S} =    0.69542   0.00000  -0.00000   0.69542
   scf:  228    -2804.521262    -2804.521262    -2804.654069  0.000030 -4.223337  0.002652
     spin moment: S , {S} =    0.69548   0.00000  -0.00000   0.69548
   scf:  229    -2804.521259    -2804.521261    -2804.654070  0.000062 -4.223367  0.002673
     spin moment: S , {S} =    0.69534   0.00000  -0.00000   0.69534
   scf:  230    -2804.521262    -2804.521261    -2804.654070  0.000041 -4.223344  0.002691
     spin moment: S , {S} =    0.69548   0.00000  -0.00000   0.69548
   scf:  231    -2804.521266    -2804.521264    -2804.654072  0.000069 -4.223336  0.002781
     spin moment: S , {S} =    0.69573   0.00000  -0.00000   0.69573
   scf:  232    -2804.521265    -2804.521264    -2804.654073  0.000015 -4.223336  0.002782
     spin moment: S , {S} =    0.69576   0.00000  -0.00000   0.69576
   scf:  233    -2804.521265    -2804.521265    -2804.654073  0.000009 -4.223331  0.002784
     spin moment: S , {S} =    0.69579   0.00000  -0.00000   0.69579
   scf:  234    -2804.521267    -2804.521266    -2804.654073  0.000036 -4.223300  0.002779
     spin moment: S , {S} =    0.69594   0.00000  -0.00000   0.69594
   scf:  235    -2804.521263    -2804.521265    -2804.654073  0.000070 -4.223335  0.002803
     spin moment: S , {S} =    0.69577   0.00000  -0.00000   0.69577
   scf:  236    -2804.521265    -2804.521265    -2804.654072  0.000058 -4.223321  0.002763
     spin moment: S , {S} =    0.69581   0.00000  -0.00000   0.69581
   scf:  237    -2804.521263    -2804.521264    -2804.654071  0.000030 -4.223336  0.002691
     spin moment: S , {S} =    0.69564   0.00000  -0.00000   0.69564
   scf:  238    -2804.521266    -2804.521265    -2804.654072  0.000028 -4.223330  0.002700
     spin moment: S , {S} =    0.69571   0.00000  -0.00000   0.69571
   scf:  239    -2804.521263    -2804.521264    -2804.654072  0.000031 -4.223348  0.002692
     spin moment: S , {S} =    0.69559   0.00000  -0.00000   0.69559
   scf:  240    -2804.521266    -2804.521265    -2804.654071  0.000055 -4.223300  0.002691
     spin moment: S , {S} =    0.69582   0.00000  -0.00000   0.69582
   scf:  241    -2804.521262    -2804.521264    -2804.654072  0.000072 -4.223337  0.002717
     spin moment: S , {S} =    0.69564   0.00000  -0.00000   0.69564
   scf:  242    -2804.521265    -2804.521264    -2804.654071  0.000047 -4.223331  0.002647
     spin moment: S , {S} =    0.69563   0.00000  -0.00000   0.69563
   scf:  243    -2804.521267    -2804.521266    -2804.654073  0.000061 -4.223352  0.002651
     spin moment: S , {S} =    0.69559   0.00000  -0.00000   0.69559
   scf:  244    -2804.521259    -2804.521262    -2804.654070  0.000123 -4.223315  0.002676
     spin moment: S , {S} =    0.69566   0.00000  -0.00000   0.69566
   scf:  245    -2804.521256    -2804.521259    -2804.654069  0.000105 -4.223375  0.002658
     spin moment: S , {S} =    0.69531   0.00000  -0.00000   0.69531
   scf:  246    -2804.521253    -2804.521256    -2804.654068  0.000058 -4.223437  0.002604
     spin moment: S , {S} =    0.69490   0.00000  -0.00000   0.69490
   scf:  247    -2804.521252    -2804.521254    -2804.654067  0.000028 -4.223459  0.002581
     spin moment: S , {S} =    0.69468   0.00000  -0.00000   0.69468
   scf:  248    -2804.521253    -2804.521253    -2804.654067  0.000014 -4.223459  0.002587
     spin moment: S , {S} =    0.69464   0.00000  -0.00000   0.69464
   scf:  249    -2804.521255    -2804.521254    -2804.654068  0.000038 -4.223474  0.002586
     spin moment: S , {S} =    0.69461   0.00000  -0.00000   0.69461
mix: Pulay -- resetting history
mix: switching mixer --> Linear-Kick
   scf:  250    -2804.521250    -2804.521252    -2804.654065  0.000094 -4.223449  0.002584
     spin moment: S , {S} =    0.69463   0.00000  -0.00000   0.69463
mix: switching mixer --> Pulay
   scf:  251    -2804.521419    -2804.521329    -2804.654116  0.001852 -4.223665  0.003112
     spin moment: S , {S} =    0.69488   0.00000  -0.00000   0.69488
   scf:  252    -2804.521195    -2804.521253    -2804.654067  0.001781 -4.223471  0.002586
     spin moment: S , {S} =    0.69460   0.00000  -0.00000   0.69460
   scf:  253    -2804.521256    -2804.521254    -2804.654065  0.000424 -4.223351  0.002488
     spin moment: S , {S} =    0.69525  -0.00000  -0.00000   0.69525
   scf:  254    -2804.521235    -2804.521244    -2804.654060  0.000466 -4.223449  0.002860
     spin moment: S , {S} =    0.69449   0.00000  -0.00000   0.69449
   scf:  255    -2804.521255    -2804.521248    -2804.654060  0.000731 -4.223255  0.002180
     spin moment: S , {S} =    0.69566  -0.00000  -0.00000   0.69566
   scf:  256    -2804.521269    -2804.521258    -2804.654065  0.000514 -4.223309  0.002468
     spin moment: S , {S} =    0.69541  -0.00000  -0.00000   0.69541
   scf:  257    -2804.521258    -2804.521258    -2804.654068  0.000281 -4.223336  0.002252
     spin moment: S , {S} =    0.69548  -0.00000  -0.00000   0.69548
   scf:  258    -2804.521258    -2804.521258    -2804.654068  0.000004 -4.223335  0.002255
     spin moment: S , {S} =    0.69548  -0.00000  -0.00000   0.69548
   scf:  259    -2804.521250    -2804.521254    -2804.654066  0.000139 -4.223350  0.002371
     spin moment: S , {S} =    0.69536  -0.00000  -0.00000   0.69536
   scf:  260    -2804.521246    -2804.521250    -2804.654064  0.000217 -4.223380  0.002458
     spin moment: S , {S} =    0.69513  -0.00000  -0.00000   0.69513
   scf:  261    -2804.521250    -2804.521250    -2804.654064  0.000010 -4.223381  0.002458
     spin moment: S , {S} =    0.69513  -0.00000  -0.00000   0.69513
   scf:  262    -2804.521265    -2804.521258    -2804.654062  0.000804 -4.223219  0.002237
     spin moment: S , {S} =    0.69619   0.00000   0.00000   0.69619
   scf:  263    -2804.521258    -2804.521258    -2804.654062  0.000023 -4.223222  0.002235
     spin moment: S , {S} =    0.69620   0.00000   0.00000   0.69620
   scf:  264    -2804.521269    -2804.521264    -2804.654074  0.000498 -4.223297  0.002508
     spin moment: S , {S} =    0.69641   0.00000   0.00000   0.69641
   scf:  265    -2804.521263    -2804.521263    -2804.654073  0.000063 -4.223295  0.002510
     spin moment: S , {S} =    0.69636   0.00000   0.00000   0.69636
   scf:  266    -2804.521265    -2804.521264    -2804.654072  0.000108 -4.223273  0.002581
     spin moment: S , {S} =    0.69647   0.00000   0.00000   0.69647
   scf:  267    -2804.521264    -2804.521264    -2804.654072  0.000006 -4.223273  0.002576
     spin moment: S , {S} =    0.69648   0.00000   0.00000   0.69648
   scf:  268    -2804.521260    -2804.521263    -2804.654075  0.000794 -4.223048  0.002504
     spin moment: S , {S} =    0.69854   0.00000   0.00000   0.69854
   scf:  269    -2804.521265    -2804.521264    -2804.654080  0.000208 -4.223064  0.002619
     spin moment: S , {S} =    0.69881   0.00000   0.00000   0.69881
   scf:  270    -2804.521268    -2804.521267    -2804.654089  0.000304 -4.223111  0.002766
     spin moment: S , {S} =    0.69914   0.00000   0.00000   0.69914
   scf:  271    -2804.521264    -2804.521266    -2804.654095  0.000582 -4.223111  0.002915
     spin moment: S , {S} =    0.70005   0.00000   0.00000   0.70005
   scf:  272    -2804.521264    -2804.521265    -2804.654096  0.000195 -4.223078  0.002903
     spin moment: S , {S} =    0.70051   0.00000   0.00000   0.70051
   scf:  273    -2804.521264    -2804.521264    -2804.654097  0.000198 -4.223079  0.003000
     spin moment: S , {S} =    0.70063   0.00000   0.00000   0.70063
   scf:  274    -2804.521265    -2804.521264    -2804.654099  0.000300 -4.223175  0.002961
     spin moment: S , {S} =    0.70006   0.00000   0.00000   0.70006
   scf:  275    -2804.521261    -2804.521261    -2804.654093  0.000343 -4.223126  0.002705
     spin moment: S , {S} =    0.69991   0.00000   0.00000   0.69991
   scf:  276    -2804.521259    -2804.521259    -2804.654090  0.000155 -4.223099  0.002624
     spin moment: S , {S} =    0.69989   0.00000   0.00000   0.69989
   scf:  277    -2804.521241    -2804.521246    -2804.654076  0.001144 -4.222995  0.002487
     spin moment: S , {S} =    0.69965   0.00000   0.00000   0.69965
   scf:  278    -2804.521245    -2804.521245    -2804.654076  0.000135 -4.223003  0.002386
     spin moment: S , {S} =    0.69954   0.00000   0.00000   0.69954
   scf:  279    -2804.521246    -2804.521246    -2804.654075  0.000152 -4.222992  0.002227
     spin moment: S , {S} =    0.69960   0.00000   0.00000   0.69960
   scf:  280    -2804.521247    -2804.521246    -2804.654076  0.000083 -4.222974  0.002228
     spin moment: S , {S} =    0.69977   0.00000   0.00000   0.69977
   scf:  281    -2804.521253    -2804.521251    -2804.654089  0.000568 -4.223110  0.002496
     spin moment: S , {S} =    0.70009   0.00000   0.00000   0.70009
   scf:  282    -2804.521251    -2804.521251    -2804.654091  0.000068 -4.223127  0.002507
     spin moment: S , {S} =    0.70011   0.00000   0.00000   0.70011
   scf:  283    -2804.521241    -2804.521247    -2804.654097  0.000439 -4.223186  0.002335
     spin moment: S , {S} =    0.70057   0.00000   0.00000   0.70057
   scf:  284    -2804.521246    -2804.521246    -2804.654097  0.000038 -4.223182  0.002360
     spin moment: S , {S} =    0.70064   0.00000   0.00000   0.70064
   scf:  285    -2804.521247    -2804.521247    -2804.654098  0.000189 -4.223173  0.002485
     spin moment: S , {S} =    0.70085   0.00000   0.00000   0.70085
   scf:  286    -2804.521248    -2804.521247    -2804.654099  0.000252 -4.223183  0.002466
     spin moment: S , {S} =    0.70083   0.00000   0.00000   0.70083
   scf:  287    -2804.521247    -2804.521247    -2804.654099  0.000012 -4.223178  0.002464
     spin moment: S , {S} =    0.70086   0.00000   0.00000   0.70086
   scf:  288    -2804.521248    -2804.521247    -2804.654100  0.000021 -4.223170  0.002474
     spin moment: S , {S} =    0.70097   0.00000   0.00000   0.70097
   scf:  289    -2804.521248    -2804.521248    -2804.654101  0.000052 -4.223181  0.002485
     spin moment: S , {S} =    0.70101   0.00000   0.00000   0.70101
   scf:  290    -2804.521248    -2804.521248    -2804.654100  0.000037 -4.223178  0.002482
     spin moment: S , {S} =    0.70095   0.00000   0.00000   0.70095
   scf:  291    -2804.521247    -2804.521248    -2804.654100  0.000012 -4.223175  0.002487
     spin moment: S , {S} =    0.70099   0.00000   0.00000   0.70099
   scf:  292    -2804.521247    -2804.521247    -2804.654100  0.000069 -4.223173  0.002471
     spin moment: S , {S} =    0.70100   0.00000   0.00000   0.70100
   scf:  293    -2804.521245    -2804.521246    -2804.654099  0.000035 -4.223181  0.002381
     spin moment: S , {S} =    0.70091   0.00000   0.00000   0.70091
   scf:  294    -2804.521247    -2804.521246    -2804.654100  0.000013 -4.223182  0.002392
     spin moment: S , {S} =    0.70093   0.00000   0.00000   0.70093
   scf:  295    -2804.521246    -2804.521246    -2804.654098  0.000039 -4.223177  0.002383
     spin moment: S , {S} =    0.70084   0.00000   0.00000   0.70084
   scf:  296    -2804.521246    -2804.521246    -2804.654098  0.000039 -4.223181  0.002384
     spin moment: S , {S} =    0.70076   0.00000   0.00000   0.70076
   scf:  297    -2804.521246    -2804.521246    -2804.654098  0.000005 -4.223180  0.002384
     spin moment: S , {S} =    0.70077   0.00000   0.00000   0.70077
   scf:  298    -2804.521245    -2804.521245    -2804.654097  0.000087 -4.223172  0.002358
     spin moment: S , {S} =    0.70079   0.00000   0.00000   0.70079
   scf:  299    -2804.521244    -2804.521244    -2804.654097  0.000029 -4.223177  0.002279
     spin moment: S , {S} =    0.70073   0.00000   0.00000   0.70073
mix: Pulay -- resetting history
mix: switching mixer --> Linear-Kick
   scf:  300    -2804.521244    -2804.521244    -2804.654096  0.000014 -4.223178  0.002266
     spin moment: S , {S} =    0.70070   0.00000   0.00000   0.70070
mix: switching mixer --> Pulay
   scf:  301    -2804.521261    -2804.521250    -2804.654121  0.001522 -4.223592  0.003632
     spin moment: S , {S} =    0.69995   0.00000   0.00000   0.69995
   scf:  302    -2804.521249    -2804.521244    -2804.654096  0.001548 -4.223168  0.002290
     spin moment: S , {S} =    0.70075   0.00000   0.00000   0.70075
   scf:  303    -2804.521243    -2804.521243    -2804.654090  0.000480 -4.223051  0.002274
     spin moment: S , {S} =    0.70101   0.00000   0.00000   0.70101
   scf:  304    -2804.521175    -2804.521204    -2804.654086  0.001606 -4.223172  0.002012
     spin moment: S , {S} =    0.70176   0.00000   0.00000   0.70176
   scf:  305    -2804.521209    -2804.521207    -2804.654086  0.000070 -4.223147  0.001997
     spin moment: S , {S} =    0.70175   0.00000   0.00000   0.70175
   scf:  306    -2804.521201    -2804.521204    -2804.654113  0.001447 -4.224081  0.001129
     spin moment: S , {S} =    0.70082   0.00000   0.00000   0.70082
   scf:  307    -2804.521202    -2804.521203    -2804.654113  0.000024 -4.224085  0.001133
     spin moment: S , {S} =    0.70080   0.00000   0.00000   0.70080
   scf:  308    -2804.521267    -2804.521233    -2804.654106  0.000949 -4.224025  0.001037
     spin moment: S , {S} =    0.70209   0.00000   0.00000   0.70209
   scf:  309    -2804.521231    -2804.521232    -2804.654107  0.000019 -4.224037  0.001034
     spin moment: S , {S} =    0.70207   0.00000   0.00000   0.70207
   scf:  310    -2804.521185    -2804.521209    -2804.654110  0.000517 -4.224216  0.001054
     spin moment: S , {S} =    0.70150   0.00000   0.00000   0.70150
   scf:  311    -2804.521203    -2804.521206    -2804.654110  0.000042 -4.224221  0.001028
     spin moment: S , {S} =    0.70145   0.00000   0.00000   0.70145
   scf:  312    -2804.521189    -2804.521198    -2804.654111  0.000122 -4.224281  0.000993
     spin moment: S , {S} =    0.70125   0.00000   0.00000   0.70125
   scf:  313    -2804.521193    -2804.521196    -2804.654112  0.000054 -4.224297  0.001002
     spin moment: S , {S} =    0.70117   0.00000   0.00000   0.70117
   scf:  314    -2804.521189    -2804.521192    -2804.654112  0.000086 -4.224307  0.001020
     spin moment: S , {S} =    0.70105   0.00000   0.00000   0.70105
   scf:  315    -2804.521196    -2804.521194    -2804.654112  0.000088 -4.224266  0.001038
     spin moment: S , {S} =    0.70110   0.00000   0.00000   0.70110
   scf:  316    -2804.521197    -2804.521195    -2804.654111  0.000051 -4.224255  0.001027
     spin moment: S , {S} =    0.70113   0.00000   0.00000   0.70113
   scf:  317    -2804.521204    -2804.521200    -2804.654112  0.000155 -4.224271  0.000881
     spin moment: S , {S} =    0.70121   0.00000   0.00000   0.70121
   scf:  318    -2804.521199    -2804.521200    -2804.654112  0.000014 -4.224270  0.000877
     spin moment: S , {S} =    0.70121   0.00000   0.00000   0.70121
   scf:  319    -2804.521197    -2804.521198    -2804.654112  0.000144 -4.224275  0.000887
     spin moment: S , {S} =    0.70131  -0.00000   0.00000   0.70131
   scf:  320    -2804.521196    -2804.521197    -2804.654112  0.000021 -4.224287  0.000884
     spin moment: S , {S} =    0.70129  -0.00000   0.00000   0.70129
   scf:  321    -2804.521146    -2804.521173    -2804.654116  0.000311 -4.224483  0.000878
     spin moment: S , {S} =    0.70057  -0.00000   0.00000   0.70057
   scf:  322    -2804.521168    -2804.521171    -2804.654116  0.000022 -4.224490  0.000880
     spin moment: S , {S} =    0.70051  -0.00000   0.00000   0.70051
   scf:  323    -2804.521152    -2804.521161    -2804.654116  0.000055 -4.224480  0.000905
     spin moment: S , {S} =    0.70023  -0.00000   0.00000   0.70023
   scf:  324    -2804.521159    -2804.521160    -2804.654117  0.000024 -4.224489  0.000926
     spin moment: S , {S} =    0.70016  -0.00000   0.00000   0.70016
   scf:  325    -2804.521155    -2804.521158    -2804.654117  0.000126 -4.224503  0.000937
     spin moment: S , {S} =    0.69989  -0.00000   0.00000   0.69989
   scf:  326    -2804.521159    -2804.521158    -2804.654117  0.000011 -4.224493  0.000937
     spin moment: S , {S} =    0.69988  -0.00000   0.00000   0.69988
   scf:  327    -2804.521186    -2804.521171    -2804.654115  0.000261 -4.224384  0.000912
     spin moment: S , {S} =    0.70019  -0.00000   0.00000   0.70019
   scf:  328    -2804.521176    -2804.521174    -2804.654115  0.000041 -4.224383  0.000880
     spin moment: S , {S} =    0.70024  -0.00000   0.00000   0.70024
   scf:  329    -2804.521179    -2804.521177    -2804.654115  0.000053 -4.224415  0.000791
     spin moment: S , {S} =    0.70028  -0.00000   0.00000   0.70028
   scf:  330    -2804.521176    -2804.521176    -2804.654115  0.000012 -4.224416  0.000781
     spin moment: S , {S} =    0.70027  -0.00000   0.00000   0.70027
   scf:  331    -2804.521174    -2804.521175    -2804.654115  0.000053 -4.224423  0.000783
     spin moment: S , {S} =    0.70026  -0.00000   0.00000   0.70026
   scf:  332    -2804.521174    -2804.521175    -2804.654115  0.000014 -4.224432  0.000786
     spin moment: S , {S} =    0.70024  -0.00000   0.00000   0.70024
   scf:  333    -2804.521161    -2804.521168    -2804.654116  0.000093 -4.224479  0.000784
     spin moment: S , {S} =    0.70004  -0.00000   0.00000   0.70004
   scf:  334    -2804.521168    -2804.521168    -2804.654116  0.000002 -4.224479  0.000785
     spin moment: S , {S} =    0.70003  -0.00000   0.00000   0.70003

SCF Convergence by DM+H criterion
max |DM_out - DM_in|         :     0.0000022284
max |H_out - H_in|      (eV) :     0.0007845598
SCF cycle converged after 334 iterations

Using DM_out to compute the final energy and forces
No. of atoms with KB's overlaping orbs in proc 0. Max # of overlaps:       2      30

siesta: E_KS(eV) =            -2804.5212

siesta: E_KS - E_eggbox =     -2804.5212
     spin moment: S , {S} =    0.70003  -0.00000   0.00000   0.70003

siesta: Atomic forces (eV/Ang):
     1   -0.522558    0.000000    0.000000
     2    0.522558    0.000000   -0.000000
----------------------------------------
   Tot   -0.000000    0.000000   -0.000000
----------------------------------------
   Max    0.522558
   Res    0.301699    sqrt( Sum f_i^2 / 3N )
----------------------------------------
   Max    0.522558    constrained

Stress tensor Voigt[x,y,z,yz,xz,xy] (kbar):       -0.24       -0.00       -0.00        0.00        0.00        0.00
(Free)E + p*V (eV/cell)    -2804.2466
Target enthalpy (eV/cell)    -2804.6541

mulliken: Atomic and Orbital Populations:

Species: Pt_SOC              

Atom      Orb        Charge      Spin       Svec
----------------------------------------------------------------
    1  1 6s         1.04229   0.01717      0.000  -0.000  -0.017
    1  2 6s         0.13796   0.00763     -0.000  -0.000   0.008
    1  3 5dxy       1.67283   0.13078     -0.000   0.000   0.131
    1  4 5dyz       1.81517   0.03177     -0.000  -0.000   0.032
    1  5 5dz2       1.81362   0.01214      0.000  -0.000   0.012
    1  6 5dxz       1.67134   0.13054     -0.000  -0.000   0.131
    1  7 5dx2-y2    1.80302   0.02994      0.000   0.000   0.030
    1  8 5dxy       0.00363   0.00393     -0.000  -0.000   0.004
    1  9 5dyz      -0.01945   0.00378      0.000   0.000   0.004
    1 10 5dz2      -0.00996   0.00476     -0.000   0.000   0.005
    1 11 5dxz       0.00359   0.00438      0.000  -0.000   0.004
    1 12 5dx2-y2    0.00967   0.00151     -0.000   0.000   0.002
    1 13 6Ppy       0.03183   0.00365     -0.000   0.000   0.004
    1 14 6Ppz       0.03179   0.00350     -0.000  -0.000   0.003
    1 15 6Ppx      -0.00732   0.00116      0.000   0.000  -0.001
    1     Total    10.00000   0.35000     -0.000  -0.000   0.350

    2  1 6s         1.04229   0.01717      0.000   0.000  -0.017
    2  2 6s         0.13796   0.00763     -0.000   0.000   0.008
    2  3 5dxy       1.67283   0.13078     -0.000   0.000   0.131
    2  4 5dyz       1.81517   0.03179      0.000   0.000   0.032
    2  5 5dz2       1.81362   0.01216     -0.000   0.000   0.012
    2  6 5dxz       1.67134   0.13054     -0.000  -0.000   0.131
    2  7 5dx2-y2    1.80302   0.02994     -0.000   0.000   0.030
    2  8 5dxy       0.00363   0.00393      0.000   0.000   0.004
    2  9 5dyz      -0.01945   0.00378     -0.000  -0.000   0.004
    2 10 5dz2      -0.00996   0.00476      0.000  -0.000   0.005
    2 11 5dxz       0.00359   0.00438      0.000   0.000   0.004
    2 12 5dx2-y2    0.00967   0.00151      0.000  -0.000   0.002
    2 13 6Ppy       0.03183   0.00365     -0.000   0.000   0.004
    2 14 6Ppz       0.03179   0.00350     -0.000   0.000   0.003
    2 15 6Ppx      -0.00732   0.00116      0.000  -0.000  -0.001
    2     Total    10.00000   0.35003     -0.000   0.000   0.350

----------------------------------------------------------------
Total              20.00000   0.70003     -0.000   0.000   0.700


siesta: Eigenvalues (eV):
ik =     1
   -8.5695   -8.4273   -7.2961   -7.2774   -6.7778   -6.7763   -6.0170   -6.0152   -5.7093   -5.6254
   -5.1910   -5.1906   -4.8019   -4.7894   -4.7743   -4.7711   -4.5556   -4.4468   -4.2571   -4.2561
   -4.1940   -4.1936   -3.6178   -3.4371   -0.0959   -0.0800    0.5521    0.6593    1.0352    1.0415
    3.3093    3.3432    4.6678    4.6753    8.7353    8.8003    9.7237    9.7734   13.0951   13.2078
   20.8509   20.8513   21.1354   21.1430   21.4885   21.4891   21.5929   21.5933   23.5525   23.5529
   24.1647   24.1649   26.5998   26.6542   27.4966   27.5179   27.8004   27.8041   35.6529   35.7590
siesta: Fermi energy =      -4.224479 eV

siesta: Program's energy decomposition (eV):
siesta: Ebs     =      -115.475961
siesta: Eions   =      1671.574203
siesta: Ena     =        29.270178
siesta: Ekin    =      1097.747399
siesta: Enl     =      -554.936166
siesta: Eso     =        -1.530252
siesta: Edftu   =         0.000000
siesta: DEna    =         5.523586
siesta: DUscf   =         0.922159
siesta: DUext   =         0.000000
siesta: Exc     =     -1709.943869
siesta: eta*DQ  =         0.000000
siesta: Emadel  =         0.000000
siesta: Emeta   =         0.000000
siesta: Emolmec =         0.000000
siesta: Ekinion =         0.000000
siesta: Eharris =     -2804.521168
siesta: Etot    =     -2804.521168
siesta: FreeEng =     -2804.654116

siesta: Final energy (eV):
siesta:  Band Struct. =    -115.475961
siesta:       Kinetic =    1097.747399
siesta:       Hartree =    1576.352663
siesta:       Edftu   =       0.000000
siesta:       Eso     =      -1.530252
siesta:    Ext. field =       0.000000
siesta:   Exch.-corr. =   -1709.943869
siesta:  Ion-electron =   -3962.688264
siesta:       Ion-ion =     195.541154
siesta:       Ekinion =       0.000000
siesta:         Total =   -2804.521168
siesta:         Fermi =      -4.224479

siesta: Atomic forces (eV/Ang):
siesta:      1   -0.522558    0.000000    0.000000
siesta:      2    0.522558    0.000000   -0.000000
siesta: ----------------------------------------
siesta:    Tot   -0.000000    0.000000   -0.000000

siesta: Stress tensor (static) (eV/Ang**3):
siesta:    -0.000153    0.000000   -0.000000
siesta:     0.000000   -0.000000    0.000000
siesta:     0.000000    0.000000   -0.000000

siesta: Cell volume =       8000.000000 Ang**3

siesta: Pressure (static):
siesta:                Solid            Molecule  Units
siesta:           0.00000055         -0.00000001  Ry/Bohr**3
siesta:           0.00005094         -0.00000129  eV/Ang**3
siesta:           0.08162019         -0.00206188  kBar
(Free)E+ p_basis*V_orbitals  =       -2802.939306
(Free)Eharris+ p_basis*V_orbitals  =       -2802.939306
     spin moment: S , {S} =    0.70003  -0.00000   0.00000   0.70003

siesta: Electric dipole (a.u.)  =   -0.000006   -0.000000   -0.000000
siesta: Electric dipole (Debye) =   -0.000016   -0.000000   -0.000000

cite: Please see "SOC_Pt2_xz.bib" for an exhaustive BiBTeX file.
cite: Please clearly indicate Siesta version in published work: v4.1-b4-351
cite: This calculation has made use of the following articles
cite: which are encouraged to be cited in a published work.
        Primary SIESTA paper
          DOI: www.doi.org/10.1088/0953-8984/14/11/302
        Spin-orbit coupling (on-site approximation)
          DOI: www.doi.org/10.1088/0953-8984/19/19/489001

>> End of run:  22-JAN-2021  21:11:30
Job completed
