Siesta Version  : v4.1-b4-351
Architecture    : x86_64-linux-n-62-26-19
Compiler version: GNU Fortran (GCC) 9.3.0
Compiler flags  : mpifort -m64 -fPIC -O3 -march=native -ftree-vectorize -fexpensive-optimizatioons -funroll-loops -fprefetch-loop-arrays -fno-second-underscore  -flto
PP flags        : -I/dtu/sw/dcc/SL73/2020-aug/generic/build-tools/1.0/include -I/dtu/sw/dcc/SL773/2020-aug/generic/gcc/9.3.0/include -I/dtu/sw/dcc/SL73/2020-aug/generic/gcc/9.3.0/include -I/dtu/sw/dcc/SL73/2020-aug/XeonE5-2660v3/gnu/9.3.0/zlib/1.2.11/include -I/dtu/sw/dcc/SL73/2020-aug/generic/numactl/2.0.12/include -I/dtu/sw/dcc/SL73/2020-aug/XeonE5-2660v3/gnu/9.3.0/libxml2/2.9.10/include -I/dtu/sw/dcc/SL73/2020-aug/XeonE5-2660v3/gnu/9.3.0/hwloc/2.2.0/include -I/dtu/sw/dcc/SL73/2020-aug/XeonE5-2660v3/gnu/9.3.0/knem/1.1.4/include -I/dtu/sw/dcc/SL73/2020-aug/XeonE5-2660v3/gnu/9.3.0/ucx/1.8.1/include -I/dtu/sw/dcc/SL73/2020-aug/XeonE5-2660v3/gnu/9.3.0/openmpi/4.0.4/include -I/dtu/sw/dcc/SL73/2020-aug/XeonE5-2660v3/gnu/9.3.0/szip/2.1.1/include -I/dtu/sw/dcc/SL73/2020-aug/XeonE5-2660v3/gnu/9.3.0/hdf5/1.12.0/include -I/dtu/sw/dcc/SL73/2020-aug/XeonE5-2660v3/gnu/9.3.0/pnetcdf/1.12.1/include -I/dtu/sw/dcc/SL73/2020-aug/generic/gen-zlib/1.2.11/include -I/dtu/sw/dcc/SL73/2020-aug/generic/openssl/1.1.1/include -I/dtu/sw/dcc/SL73/2020-aug/generic/libssh2/1.8.2/include -I/dtu/sw/dcc/SL73/2020-aug/generic/curl/7.65.1/include -I/dtu/sw/dcc/SL73/2020-aug/XeonE5-2660v3/gnu/9.3.0/netcdf/4.7.4/include -I/dtu/sw/dcc/SL73/2020-aug/XeonE5-2660v3/gnu/9.3.0/flook/0.8.1/include -I/dtu/sw/dcc/SL73/2020-aug/XeonE5-2660v3/gnu/9.3.0/fftw/3.3.8/include -I/dtu/sw/dcc/SL73/2020-aug/XeonE5-2660v3/gnu/9.3.0/parmetis/4.0.3/include -I/dtu/sw/dcc/SL73/2020-aug/XeonE5-2660v3/gnu/9.3.0/scalapack/2.1.0/include -I/dtu/sw/dcc/SL73/2020-aug/XeonE5-2660v3/gnu/9.3.0/lapack/3.9.0/include -I/dtu/sw/dcc/SL73/2020-aug/XeonE5-2660v3/gnu/9.3.0/blis/0.7.0/include -I/dtu/sw/dcc/SL73/2020-aug/XeonE5-2660v3/gnu/9.3.0/scotch/6.0.9/include -I/dtu/sw/dcc/SL73/2020-aug/XeonE5-2660v3/gnu/9.3.0/mumps/5.3.3/include -I/dtu/sw/dcc/SL73/2020-aug/XeonE5-2660v3/gnu/9.3.0/elpa/2020.05.001/include -DSIESTA__ELPA -DMPI -DFC_HAVE_FLUSH -DFC_HAVE_ABORT -DCDF -DCDF4 -DSIESTA__FLOOK  -DNCDF -DNCDF_4 -DNCDF_PARALLEL -DTS_NOCHECKS -DSIESTA__METIS -DSIESTA__MUMPS -DSIESTA__MRRR -I/dtu/sw/dcc/SL73/2020-aug/XeonE5-2660v3/gnu/9.3.0/elpa/2020.05.001/include/elpa
Libraries       : libncdf.a libfdict.a -lnetcdff -lnetcdf -lpnetcdf -lhdf5_hl -lhdf5 -lz  -lzmuumps -lmumps_common -lesmumps -lscotch -lscotcherr -lpord -lparmetis -lmetis -lelpa -lscalapack -llapack -lblis  -L/dtu/sw/dcc/SL73/2020-aug/XeonE5-2660v3/gnu/9.3.0/flook/0.8.1/lib -Wl,-rpath=/dtu/sw/dcc/SL73/2020-aug/XeonE5-2660v3/gnu/9.3.0/flook/0.8.1/lib -lflookall -ldl  -flto -fuse-linker-plugin  -lmetis
PARALLEL version
NetCDF support
NetCDF-4 support
NetCDF-4 MPI-IO support
METIS ordering support
Lua support

* Running on 8 nodes in parallel
>> Start of run:  22-JAN-2021  21:38:23

                           ***********************       
                           *  WELCOME TO SIESTA  *       
                           ***********************       

reinit: Reading from ../SOC_FePt_zz.fdf

reinit: -----------------------------------------------------------------------
reinit: System Name: SOC FePt Z-alignment z
reinit: -----------------------------------------------------------------------
reinit: System Label: SOC_FePt_zz
reinit: -----------------------------------------------------------------------

initatom: Reading input for the pseudopotentials and atomic orbitals ----------
Species number:   1 Atomic number:   26 Label: Fe_SOC
Species number:   2 Atomic number:   78 Label: Pt_SOC

Ground state valence configuration:   4s02  3d06
Reading pseudopotential information in formatted form from Fe_SOC.psf

Pseudopotential generated from a relativistic atomic calculation

Valence configuration for pseudopotential generation:
4s( 2.00) rc: 2.00
4p( 0.00) rc: 2.47
3d( 6.00) rc: 0.59
4f( 0.00) rc: 2.00
Ground state valence configuration:   6s01  5d09
Reading pseudopotential information in formatted form from Pt_SOC.psf

Pseudopotential generated from a relativistic atomic calculation

Valence configuration for pseudopotential generation:
6s( 1.00) rc: 2.24
6p( 0.00) rc: 2.73
5d( 9.00) rc: 1.24
5f( 0.00) rc: 2.98
For Fe_SOC, standard SIESTA heuristics set lmxkb to 3
 (one more than the basis l, including polarization orbitals).
Use PS.lmax or PS.KBprojectors blocks to override.
Fe_SOC: nkbl increased for l=1 due to the presence of a polarization orbital
For Pt_SOC, standard SIESTA heuristics set lmxkb to 3
 (one more than the basis l, including polarization orbitals).
Use PS.lmax or PS.KBprojectors blocks to override.
Pt_SOC: nkbl increased for l=1 due to the presence of a polarization orbital

<basis_specs>
===============================================================================
Fe_SOC               Z=  26    Mass=  55.850        Charge= 0.17977+309
Lmxo=2 Lmxkb= 3    BasisType=split      Semic=F
L=0  Nsemic=0  Cnfigmx=4
          i=1  nzeta=2  polorb=1  (4s)
            splnorm:   0.15000    
               vcte:    0.0000    
               rinn:    0.0000    
               qcoe:    0.0000    
               qyuk:    0.0000    
               qwid:   0.10000E-01
                rcs:    0.0000      0.0000    
            lambdas:    1.0000      1.0000    
L=1  Nsemic=0  Cnfigmx=4
L=2  Nsemic=0  Cnfigmx=3
          i=1  nzeta=2  polorb=0  (3d)
            splnorm:   0.15000    
               vcte:    0.0000    
               rinn:    0.0000    
               qcoe:    0.0000    
               qyuk:    0.0000    
               qwid:   0.10000E-01
                rcs:    0.0000      0.0000    
            lambdas:    1.0000      1.0000    
-------------------------------------------------------------------------------
L=0  Nkbl=1  erefs: 0.17977+309
L=1  Nkbl=1  erefs: 0.17977+309
L=2  Nkbl=1  erefs: 0.17977+309
L=3  Nkbl=1  erefs: 0.17977+309
===============================================================================
</basis_specs>

atom: Called for Fe_SOC                (Z =  26)

read_vps: Pseudopotential generation method:
read_vps: ATM 3.2.2 Troullier-Martins                       
Valence charge for ps generation:    8.00000

read_vps: Pseudopotential includes a core correction:
read_vps: Pseudo-core for xc-correction

xc_check: Exchange-correlation functional:
xc_check: GGA Perdew, Burke & Ernzerhof 1996
V l=0 = -2*Zval/r beyond r=  2.7302
V l=1 = -2*Zval/r beyond r=  2.7302
V l=2 = -2*Zval/r beyond r=  2.7302
V l=3 = -2*Zval/r beyond r=  2.7302
All V_l potentials equal beyond r=  2.4397
This should be close to max(r_c) in ps generation
All pots = -2*Zval/r beyond r=  2.7302

VLOCAL1: 99.0% of the norm of Vloc inside      7.293 Ry
VLOCAL1: 99.9% of the norm of Vloc inside     16.621 Ry
atom: Maximum radius for 4*pi*r*r*local-pseudopot. charge    2.94283
atom: Maximum radius for r*vlocal+2*Zval:    2.59703
GHOST: No ghost state for L =  0
GHOST: No ghost state for L =  1
GHOST: No ghost state for L =  2
GHOST: No ghost state for L =  3

KBgen: Kleinman-Bylander projectors: 
   l= 0   rc=  2.942828   el= -0.388448   Ekb=  3.456139   kbcos=  0.265108
   l= 1   rc=  3.017329   el= -0.097629   Ekb=  1.627426   kbcos=  0.233551
   l= 2   rc=  2.597026   el= -0.553696   Ekb=-41.514142   kbcos= -0.528281
   l= 3   rc=  3.132630   el=  0.003178   Ekb= -1.805664   kbcos= -0.008400

KBgen: Total number of  Kleinman-Bylander projectors:   16
atom: -------------------------------------------------------------------------

atom: SANKEY-TYPE ORBITALS:
atom: Selected multiple-zeta basis: split     

SPLIT: Orbitals with angular momentum L= 0

SPLIT: Basis orbitals for state 4s

SPLIT: PAO cut-off radius determined from an
SPLIT: energy shift=  0.007350 Ry

   izeta = 1
                 lambda =    1.000000
                     rc =    7.329377
                 energy =   -0.382049
                kinetic =    0.309407
    potential(screened) =   -0.691456
       potential(ionic) =   -5.984815

   izeta = 2
                 rmatch =    6.152681
              splitnorm =    0.150000
                 energy =   -0.326428
                kinetic =    0.495955
    potential(screened) =   -0.822384
       potential(ionic) =   -6.536747

SPLIT: Orbitals with angular momentum L= 2

SPLIT: Basis orbitals for state 3d

SPLIT: PAO cut-off radius determined from an
SPLIT: energy shift=  0.007350 Ry

   izeta = 1
                 lambda =    1.000000
                     rc =    4.335693
                 energy =   -0.547021
                kinetic =   14.245262
    potential(screened) =  -14.792283
       potential(ionic) =  -24.235128

   izeta = 2
                 rmatch =    2.207499
              splitnorm =    0.150000
                 energy =   -0.199409
                kinetic =   19.876744
    potential(screened) =  -20.076152
       potential(ionic) =  -30.388261

POLgen: Perturbative polarization orbital with L=  1

POLgen: Polarization orbital for state 4s

   izeta = 1
                     rc =    7.329377
                 energy =   -0.065271
                kinetic =    0.578079
    potential(screened) =   -0.643349
       potential(ionic) =   -5.515187
atom: Total number of Sankey-type orbitals: 15

atm_pop: Valence configuration (for local Pseudopot. screening):
 4s( 2.00)                                                            
 4p( 0.00)                                                            
 3d( 6.00)                                                            
Vna: chval, zval:    8.00000   8.00000

Vna:  Cut-off radius for the neutral-atom potential:   7.329377
comcore: Pseudo-core radius Rcore=  3.778693

atom: _________________________________________________________________________

<basis_specs>
===============================================================================
Pt_SOC               Z=  78    Mass=  195.08        Charge= 0.17977+309
Lmxo=2 Lmxkb= 3    BasisType=split      Semic=F
L=0  Nsemic=0  Cnfigmx=6
          i=1  nzeta=2  polorb=1  (6s)
            splnorm:   0.15000    
               vcte:    0.0000    
               rinn:    0.0000    
               qcoe:    0.0000    
               qyuk:    0.0000    
               qwid:   0.10000E-01
                rcs:    0.0000      0.0000    
            lambdas:    1.0000      1.0000    
L=1  Nsemic=0  Cnfigmx=6
L=2  Nsemic=0  Cnfigmx=5
          i=1  nzeta=2  polorb=0  (5d)
            splnorm:   0.15000    
               vcte:    0.0000    
               rinn:    0.0000    
               qcoe:    0.0000    
               qyuk:    0.0000    
               qwid:   0.10000E-01
                rcs:    0.0000      0.0000    
            lambdas:    1.0000      1.0000    
-------------------------------------------------------------------------------
L=0  Nkbl=1  erefs: 0.17977+309
L=1  Nkbl=1  erefs: 0.17977+309
L=2  Nkbl=1  erefs: 0.17977+309
L=3  Nkbl=1  erefs: 0.17977+309
===============================================================================
</basis_specs>

atom: Called for Pt_SOC                (Z =  78)

read_vps: Pseudopotential generation method:
read_vps: ATM 3.2.2 Troullier-Martins                       
Valence charge for ps generation:   10.00000

read_vps: Pseudopotential includes a core correction:
read_vps: Pseudo-core for xc-correction

xc_check: Exchange-correlation functional:
xc_check: GGA Perdew, Burke & Ernzerhof 1996
V l=0 = -2*Zval/r beyond r=  3.0596
V l=1 = -2*Zval/r beyond r=  3.0596
V l=2 = -2*Zval/r beyond r=  3.0596
V l=3 = -2*Zval/r beyond r=  3.0981
All V_l potentials equal beyond r=  2.9104
This should be close to max(r_c) in ps generation
All pots = -2*Zval/r beyond r=  3.0981

VLOCAL1: 99.0% of the norm of Vloc inside      5.125 Ry
VLOCAL1: 99.9% of the norm of Vloc inside     11.679 Ry
atom: Maximum radius for 4*pi*r*r*local-pseudopot. charge    3.51058
atom: Maximum radius for r*vlocal+2*Zval:    3.09807
GHOST: No ghost state for L =  0
GHOST: No ghost state for L =  1
GHOST: No ghost state for L =  2
GHOST: No ghost state for L =  3

KBgen: Kleinman-Bylander projectors: 
   l= 0   rc=  3.297886   el= -0.413885   Ekb=  4.454381   kbcos=  0.246717
   l= 1   rc=  3.381373   el= -0.063071   Ekb=  1.998299   kbcos=  0.230762
   l= 2   rc=  3.137044   el= -0.454162   Ekb= -5.116612   kbcos= -0.676172
   l= 3   rc=  3.599455   el=  0.003169   Ekb= -0.935521   kbcos= -0.024370

KBgen: Total number of  Kleinman-Bylander projectors:   16
atom: -------------------------------------------------------------------------

atom: SANKEY-TYPE ORBITALS:
atom: Selected multiple-zeta basis: split     

SPLIT: Orbitals with angular momentum L= 0

SPLIT: Basis orbitals for state 6s

SPLIT: PAO cut-off radius determined from an
SPLIT: energy shift=  0.007350 Ry

   izeta = 1
                 lambda =    1.000000
                     rc =    7.158402
                 energy =   -0.407576
                kinetic =    0.352573
    potential(screened) =   -0.760148
       potential(ionic) =   -7.385835

   izeta = 2
                 rmatch =    6.009165
              splitnorm =    0.150000
                 energy =   -0.341372
                kinetic =    0.579404
    potential(screened) =   -0.920777
       potential(ionic) =   -8.017759

SPLIT: Orbitals with angular momentum L= 2

SPLIT: Basis orbitals for state 5d

SPLIT: PAO cut-off radius determined from an
SPLIT: energy shift=  0.007350 Ry

   izeta = 1
                 lambda =    1.000000
                     rc =    5.044431
                 energy =   -0.446663
                kinetic =    4.610144
    potential(screened) =   -5.056807
       potential(ionic) =  -13.997492

   izeta = 2
                 rmatch =    3.021582
              splitnorm =    0.150000
                 energy =   -0.194009
                kinetic =    6.450170
    potential(screened) =   -6.644179
       potential(ionic) =  -16.245470

POLgen: Perturbative polarization orbital with L=  1

POLgen: Polarization orbital for state 6s

   izeta = 1
                     rc =    7.158402
                 energy =   -0.090110
                kinetic =    0.622430
    potential(screened) =   -0.712540
       potential(ionic) =   -6.949247
atom: Total number of Sankey-type orbitals: 15

atm_pop: Valence configuration (for local Pseudopot. screening):
 6s( 1.00)                                                            
 6p( 0.00)                                                            
 5d( 9.00)                                                            
Vna: chval, zval:   10.00000  10.00000

Vna:  Cut-off radius for the neutral-atom potential:   7.158402
comcore: Pseudo-core radius Rcore=  4.130025

atom: _________________________________________________________________________

prinput: Basis input ----------------------------------------------------------

PAO.BasisType split     

%block ChemicalSpeciesLabel
    1   26 Fe_SOC                  # Species index, atomic number, species label
    2   78 Pt_SOC                  # Species index, atomic number, species label
%endblock ChemicalSpeciesLabel

%block PAO.Basis                 # Define Basis set
Fe_SOC                2                    # Species label, number of l-shells
 n=4   0   2 P   1                   # n, l, Nzeta, Polarization, NzetaPol
   7.329      6.153   
   1.000      1.000   
 n=3   2   2                         # n, l, Nzeta 
   4.336      2.207   
   1.000      1.000   
Pt_SOC                2                    # Species label, number of l-shells
 n=6   0   2 P   1                   # n, l, Nzeta, Polarization, NzetaPol
   7.158      6.009   
   1.000      1.000   
 n=5   2   2                         # n, l, Nzeta 
   5.044      3.022   
   1.000      1.000   
%endblock PAO.Basis

prinput: ----------------------------------------------------------------------

Dumping basis to NetCDF file Fe_SOC.ion.nc
Dumping basis to NetCDF file Pt_SOC.ion.nc
coor:   Atomic-coordinates input format  =     Cartesian coordinates
coor:                                          (in Angstroms)

siesta: Atomic coordinates (Bohr) and species
siesta:      0.00000   2.63907   2.63907  1        1
siesta:      3.58292   0.00000   0.00000  2        2

siesta: System type = bulk      

initatomlists: Number of atoms, orbitals, and projectors:      2    30    32

siesta: ******************** Simulation parameters ****************************
siesta:
siesta: The following are some of the parameters of the simulation.
siesta: A complete list of the parameters used, including default values,
siesta: can be found in file out.fdf
siesta:
redata: Spin configuration                          = spin-orbit
redata: Number of spin components                   = 8
redata: Time-Reversal Symmetry                      = F
redata: Spin spiral                                 = F
############################################################
This spin-orbit implementation uses a local approximation.
From 4.2 and onwards the full non-local approximation is implemented
You are strongly advised to use >=4.2 versions!
############################################################
redata: Long output                                 =   F
redata: Number of Atomic Species                    =        2
redata: Charge density info will appear in .RHO file
redata: Write Mulliken Pop.                         = Atomic and Orbital charges
redata: Matel table size (NRTAB)                    =     1024
redata: Mesh Cutoff                                 =   350.0000 Ry
redata: Net charge of the system                    =     0.0000 |e|
redata: Min. number of SCF Iter                     =        0
redata: Max. number of SCF Iter                     =       15
redata: SCF mix quantity                            = Hamiltonian
redata: Mix DM or H after convergence               =   F
redata: Recompute H after scf cycle                 =   F
redata: Mix DM in first SCF step                    =   T
redata: Write Pulay info on disk                    =   F
redata: New DM Occupancy tolerance                  = 0.000000000001
redata: Kick with linear mixing every               =       50 iterations
redata: DM Mixing Weight for Kicks                  =     0.5000
redata: Require Harris convergence for SCF          =   F
redata: Harris energy tolerance for SCF             =     0.000100 eV
redata: Require DM convergence for SCF              =   T
redata: DM tolerance for SCF                        =     0.000100
redata: Require EDM convergence for SCF             =   F
redata: EDM tolerance for SCF                       =     0.001000 eV
redata: Require H convergence for SCF               =   T
redata: Hamiltonian tolerance for SCF               =     0.001000 eV
redata: Require (free) Energy convergence for SCF   =   F
redata: (free) Energy tolerance for SCF             =     0.000100 eV
redata: Using Saved Data (generic)                  =   F
redata: Use continuation files for DM               =   F
redata: Neglect nonoverlap interactions             =   F
redata: Method of Calculation                       = Diagonalization
redata: Electronic Temperature                      =   580.2219 K
redata: Fix the spin of the system                  =   F
redata: Dynamics option                             = Single-point calculation
mix.SCF: Pulay mixing                            = Pulay
mix.SCF:    Variant                              = stable
mix.SCF:    History steps                        = 6
mix.SCF:    Linear mixing weight                 =     0.010000
mix.SCF:    Mixing weight                        =     0.010000
mix.SCF:    SVD condition                        = 0.1000E-07
mix.SCF:    Restart steps                        = 49
mix.SCF:    Restart save steps                   = 1
mix.SCF:    Number of mixing iterations          = 49
mix.SCF:    Following mixer                      = Linear-Kick
mix.SCF: Linear mixing                           = Linear-Kick
mix.SCF:    Mixing weight                        =     0.500000
mix.SCF:    Number of mixing iterations          = 1
mix.SCF:    Following mixer                      = Pulay
mix.SCF: Spin-component mixing                   all
redata: Save all siesta data in one NC              =   F
redata: ***********************************************************************

%block SCF.Mixers
  Pulay
  Linear-Kick
%endblock SCF.Mixers

%block SCF.Mixer.Pulay
  # Mixing method
  method pulay
  variant stable

  # Mixing options
  weight 0.0100
  weight.linear 0.0100
  history 6
  restart 49
  restart.save 1

  # Continuation options
  iterations 49
  next Linear-Kick
%endblock SCF.Mixer.Pulay

%block SCF.Mixer.Linear-Kick
  # Mixing method
  method linear

  # Mixing options
  weight 0.5000

  # Continuation options
  iterations 1
  next Pulay
%endblock SCF.Mixer.Linear-Kick

DM_history_depth set to one: no extrapolation allowed by default for geometry relaxation
Size of DM history Fstack: 1
Total number of electrons:    18.000000
Total ionic charge:    18.000000

* ProcessorY, Blocksize:    2   4


* Orbital distribution balance (max,min):     4     2

k-point displ. along   2 input, could be:     0.00    0.50
k-point displ. along   3 input, could be:     0.00    0.50

Time-reversal symmetry not used.

siesta: k-grid: Number of k-points =  1152
siesta: k-grid: Cutoff (effective) =    15.168 Ang
siesta: k-grid: Supercell and displacements
siesta: k-grid:    8   0   0      0.500
siesta: k-grid:    0  12   0      0.000
siesta: k-grid:    0   0  12      0.000

diag: Algorithm                                     = D&C
diag: Parallel over k                               =   F
diag: Use parallel 2D distribution                  =   T
diag: Parallel block-size                           = 4
diag: Parallel distribution                         =     2 x     4
diag: Used triangular part                          = Lower
diag: Absolute tolerance                            =  0.100E-15
diag: Orthogonalization factor                      =  0.100E-05
diag: Memory factor                                 =  1.0000

superc: Internal auxiliary supercell:     5 x     9 x     9  =     405
superc: Number of atoms, orbitals, and projectors:    810  12150  12960


ts: **************************************************************
ts: Save H and S matrices                           =    F
ts: Save DM and EDM matrices                        =    F
ts: Only save the overlap matrix S                  =    F
ts: **************************************************************

************************ Begin: TS CHECKS AND WARNINGS ************************
************************ End: TS CHECKS AND WARNINGS **************************


                     ====================================
                        Single-point calculation
                     ====================================

outcoor: Atomic coordinates (Ang):                          
    0.00000000    1.39653550    1.39653550   1       1  Fe_SOC
    1.89600000    0.00000000    0.00000000   2       2  Pt_SOC

superc: Internal auxiliary supercell:     5 x     9 x     9  =     405
superc: Number of atoms, orbitals, and projectors:    810  12150  12960

outcell: Unit cell vectors (Ang):
        3.792000    0.000000    0.000000
        0.000000    2.793069    0.000000
        0.000000    0.000000    2.793069

outcell: Cell vector modules (Ang)   :    3.792000    2.793069    2.793069
outcell: Cell angles (23,13,12) (deg):     90.0000     90.0000     90.0000
outcell: Cell volume (Ang**3)        :     29.5823
<dSpData1D:S at geom step 0
  <sparsity:sparsity for geom step 0
    nrows_g=30 nrows=4 sparsity=10.6444 nnzs=9580, refcount: 8>
  <dData1D:(new from dSpData1D) n=9580, refcount: 1>
refcount: 1>
new_DM -- step:     1
Initializing Density Matrix...
DM filled with atomic data (user-defined):
<dSpData2D:DM initialized from atoms
  <sparsity:sparsity for geom step 0
    nrows_g=30 nrows=4 sparsity=10.6444 nnzs=9580, refcount: 9>
  <dData2D:DM n=9580 m=8, refcount: 1>
refcount: 1>
     spin moment: S , {S} =    2.00000   0.00000   0.00000   2.00000
No. of atoms with KB's overlaping orbs in proc 0. Max # of overlaps:      51     423

Initializing spin-orbit part of the Hamiltonian
  Adding spin-orbit effects for Fe
  Adding spin-orbit effects for Pt


New grid distribution:   1
           1       1:   24    1:    8    1:    4
           2       1:   24    1:    8    5:    8
           3       1:   24    1:    8    9:   12
           4       1:   24    1:    8   13:   16
           5       1:   24    9:   16    1:    4
           6       1:   24    9:   16    5:    8
           7       1:   24    9:   16    9:   12
           8       1:   24    9:   16   13:   16

InitMesh: MESH =    48 x    32 x    32 =       49152
InitMesh: (bp) =    24 x    16 x    16 =        6144
InitMesh: Mesh cutoff (required, used) =   350.000   362.776 Ry
ExtMesh (bp) on 0 =   124 x   100 x    96 =     1190400
New grid distribution:   2
           1      13:   24    1:    8    1:    8
           2       1:   12    1:    8    1:    8
           3      13:   24    1:    8    9:   16
           4       1:   12    1:    8    9:   16
           5      13:   24    9:   16    1:    8
           6       1:   12    9:   16    1:    8
           7      13:   24    9:   16    9:   16
           8       1:   12    9:   16    9:   16
New grid distribution:   3
           1      13:   24    1:    8    1:    8
           2       1:   12    1:    8    1:    8
           3      13:   24    1:    8    9:   16
           4       1:   12    1:    8    9:   16
           5      13:   24    9:   16    1:    8
           6       1:   12    9:   16    1:    8
           7      13:   24    9:   16    9:   16
           8       1:   12    9:   16    9:   16
Setting up quadratic distribution...
ExtMesh (bp) on 0 =   112 x   100 x   100 =     1120000
PhiOnMesh: Number of (b)points on node 0 =                  768
PhiOnMesh: nlist on node 0 =                80631

stepf: Fermi-Dirac step function

siesta: Program's energy decomposition (eV):
siesta: Ebs     =       -18.727604
siesta: Eions   =      1473.891998
siesta: Ena     =        26.471145
siesta: Ekin    =      1857.823614
siesta: Enl     =     -1398.085078
siesta: Eso     =        -0.978149
siesta: Edftu   =         0.000000
siesta: DEna    =        20.037853
siesta: DUscf   =        56.303777
siesta: DUext   =         0.000000
siesta: Exc     =     -1262.491100
siesta: eta*DQ  =         0.000000
siesta: Emadel  =         0.000000
siesta: Emeta   =         0.000000
siesta: Emolmec =         0.000000
siesta: Ekinion =         0.000000
siesta: Eharris =     -2078.588297
siesta: Etot    =     -2174.809936
siesta: FreeEng =     -2174.836985

        iscf     Eharris(eV)        E_KS(eV)     FreeEng(eV)     dDmax    Ef(eV) dHmax(eV)
   scf:    1    -2078.588297    -2174.809936    -2174.836985  0.682925 -4.064053 32.276951
     spin moment: S , {S} =    0.99106  -0.00000   0.00000   0.99106
timer: Routine,Calls,Time,% = IterSCF        1      23.683  77.36
   scf:    2    -2203.312020    -2189.736473    -2189.761940  0.086872 -4.029935 25.679169
     spin moment: S , {S} =    1.14428  -0.00000   0.00000   1.14428
   scf:    3    -2230.585514    -2221.138662    -2221.175865  0.293718 -3.671570  6.861132
     spin moment: S , {S} =    1.67855   0.00000   0.00000   1.67855
   scf:    4    -2200.503779    -2216.124066    -2216.161838  0.247486 -3.298986 17.954363
     spin moment: S , {S} =    1.95210   0.00000   0.00000   1.95210
   scf:    5    -2220.392919    -2218.469725    -2218.502635  0.210819 -4.060444 13.940886
     spin moment: S , {S} =    2.30326   0.00000   0.00000   2.30326
   scf:    6    -2220.719055    -2219.624603    -2219.657326  0.032008 -4.160178 12.432349
     spin moment: S , {S} =    2.34409   0.00000   0.00000   2.34409
   scf:    7    -2217.037233    -2218.374673    -2218.406927  0.018205 -4.214586 13.497268
     spin moment: S , {S} =    2.33605   0.00000   0.00000   2.33605
   scf:    8    -2218.684102    -2218.529697    -2218.563484  0.010809 -4.228503 13.267820
     spin moment: S , {S} =    2.27923   0.00000   0.00000   2.27923
   scf:    9    -2220.749895    -2219.651643    -2219.678878  0.062809 -4.416762 11.622185
     spin moment: S , {S} =    2.65198   0.00000   0.00000   2.65198
   scf:   10    -2219.418903    -2223.454283    -2223.468346  0.175290 -4.742777  4.450126
     spin moment: S , {S} =    3.03883   0.00000   0.00000   3.03883
   scf:   11    -2223.881443    -2224.271466    -2224.284392  0.080621 -4.671640  1.461730
     spin moment: S , {S} =    3.34033   0.00000   0.00000   3.34033
   scf:   12    -2224.345070    -2224.343357    -2224.356649  0.013534 -4.648820  0.335079
     spin moment: S , {S} =    3.36369   0.00000   0.00000   3.36369
   scf:   13    -2224.289957    -2224.329111    -2224.342158  0.014019 -4.602069  0.716127
     spin moment: S , {S} =    3.42040   0.00000   0.00000   3.42040
   scf:   14    -2224.350679    -2224.345288    -2224.358489  0.008651 -4.630706  0.168872
     spin moment: S , {S} =    3.38759   0.00000   0.00000   3.38759
   scf:   15    -2224.332555    -2224.341242    -2224.354549  0.008484 -4.664240  0.457111
     spin moment: S , {S} =    3.35584   0.00000   0.00000   3.35584
SCF_NOT_CONV: SCF did not converge in maximum number of steps.
Geom step, scf iteration, dmax:    0    15    0.033597

Using DM_out to compute the final energy and forces
No. of atoms with KB's overlaping orbs in proc 0. Max # of overlaps:      51     423

siesta: E_KS(eV) =            -2224.3412

siesta: E_KS - E_eggbox =     -2224.3412
     spin moment: S , {S} =    3.35584   0.00000   0.00000   3.35584

siesta: Atomic forces (eV/Ang):
     1   -0.000000    0.000004    0.000004
     2    0.000000    0.000004    0.000004
----------------------------------------
   Tot    0.000000    0.000008    0.000008
----------------------------------------
   Max    0.000004
   Res    0.000003    sqrt( Sum f_i^2 / 3N )
----------------------------------------
   Max    0.000004    constrained

Stress tensor Voigt[x,y,z,yz,xz,xy] (kbar):       42.75       52.89       53.30        0.00       -0.00        0.00
(Free)E + p*V (eV/cell)    -2225.2712
Target enthalpy (eV/cell)    -2224.3545

mulliken: Atomic and Orbital Populations:

Species: Fe_SOC              

Atom      Orb        Charge      Spin       Svec
----------------------------------------------------------------
    1  1 4s        -0.38350   0.01838      0.000  -0.000   0.018
    1  2 4s         0.91103   0.00209     -0.000   0.000  -0.002
    1  3 3dxy       1.31148   0.57390     -0.000   0.000   0.574
    1  4 3dyz       1.20437   0.71849     -0.000   0.000   0.718
    1  5 3dz2       1.44278   0.49645     -0.000   0.000   0.496
    1  6 3dxz       1.31336   0.57249     -0.000  -0.000   0.572
    1  7 3dx2-y2    1.30112   0.65123     -0.000   0.000   0.651
    1  8 3dxy      -0.04189   0.01628      0.000   0.000   0.016
    1  9 3dyz      -0.03055   0.01498      0.000  -0.000   0.015
    1 10 3dz2      -0.06324   0.03030      0.000   0.000   0.030
    1 11 3dxz      -0.04205   0.01631      0.000  -0.000   0.016
    1 12 3dx2-y2   -0.04251   0.02328      0.000   0.000   0.023
    1 13 4Ppy       0.33377   0.00665     -0.000  -0.000  -0.007
    1 14 4Ppz       0.33397   0.00612     -0.000   0.000  -0.006
    1 15 4Ppx       0.32089   0.01873      0.000   0.000   0.019
    1     Total     7.86902   3.13595      0.000   0.000   3.136

----------------------------------------------------------------
Total               7.86902   3.13595      0.000   0.000   3.136


Species: Pt_SOC              

Atom      Orb        Charge      Spin       Svec
----------------------------------------------------------------
    2  1 6s        -0.38102   0.04424     -0.000  -0.000   0.044
    2  2 6s         1.03054   0.06274      0.000  -0.000  -0.063
    2  3 5dxy       1.76242   0.02988      0.000  -0.000   0.030
    2  4 5dyz       1.83236   0.01231      0.000  -0.000   0.012
    2  5 5dz2       1.66641   0.09381     -0.000   0.000   0.094
    2  6 5dxz       1.76074   0.02628     -0.000   0.000   0.026
    2  7 5dx2-y2    1.72502   0.07644     -0.000   0.000   0.076
    2  8 5dxy      -0.01455   0.02502      0.000   0.000   0.025
    2  9 5dyz      -0.00446   0.02428     -0.000   0.000   0.024
    2 10 5dz2      -0.01588   0.01912      0.000  -0.000   0.019
    2 11 5dxz      -0.01438   0.02614      0.000   0.000   0.026
    2 12 5dx2-y2   -0.01270   0.02534      0.000   0.000   0.025
    2 13 6Ppy       0.26107   0.03036      0.000  -0.000  -0.030
    2 14 6Ppz       0.26122   0.02886      0.000   0.000  -0.029
    2 15 6Ppx       0.27420   0.06103     -0.000  -0.000  -0.061
    2     Total    10.13098   0.21988     -0.000   0.000   0.220

----------------------------------------------------------------
Total              18.00000   3.35584      0.000   0.000   3.356


siesta: Program's energy decomposition (eV):
siesta: Ebs     =      -140.363878
siesta: Eions   =      1473.891998
siesta: Ena     =        26.471145
siesta: Ekin    =      1700.182419
siesta: Enl     =     -1220.466299
siesta: Eso     =        -0.659620
siesta: Edftu   =         0.000000
siesta: DEna    =         4.996409
siesta: DUscf   =         0.835701
siesta: DUext   =         0.000000
siesta: Exc     =     -1261.808999
siesta: eta*DQ  =         0.000000
siesta: Emadel  =         0.000000
siesta: Emeta   =         0.000000
siesta: Emolmec =         0.000000
siesta: Ekinion =         0.000000
siesta: Eharris =     -2224.332555
siesta: Etot    =     -2224.341242
siesta: FreeEng =     -2224.354549

siesta: Final energy (eV):
siesta:  Band Struct. =    -140.363878
siesta:       Kinetic =    1700.182419
siesta:       Hartree =     187.893143
siesta:       Edftu   =       0.000000
siesta:       Eso     =      -0.659620
siesta:    Ext. field =       0.000000
siesta:   Exch.-corr. =   -1261.808999
siesta:  Ion-electron =   -1808.881104
siesta:       Ion-ion =   -1041.067081
siesta:       Ekinion =       0.000000
siesta:         Total =   -2224.341242
siesta:         Fermi =      -4.664240

siesta: Stress tensor (static) (eV/Ang**3):
siesta:     0.026682    0.000000    0.000000
siesta:     0.000000    0.033008    0.000000
siesta:    -0.000000    0.000000    0.033270

siesta: Cell volume =         29.582275 Ang**3

siesta: Pressure (static):
siesta:                Solid            Molecule  Units
siesta:          -0.00033748         -0.00033748  Ry/Bohr**3
siesta:          -0.03098660         -0.03098660  eV/Ang**3
siesta:         -49.64654352        -49.64653886  kBar
(Free)E+ p_basis*V_orbitals  =       -2222.635038
(Free)Eharris+ p_basis*V_orbitals  =       -2222.626352
     spin moment: S , {S} =    3.35584   0.00000   0.00000   3.35584

cite: Please see "SOC_FePt_zz.bib" for an exhaustive BiBTeX file.
cite: Please clearly indicate Siesta version in published work: v4.1-b4-351
cite: This calculation has made use of the following articles
cite: which are encouraged to be cited in a published work.
        Primary SIESTA paper
          DOI: www.doi.org/10.1088/0953-8984/14/11/302
        Spin-orbit coupling (on-site approximation)
          DOI: www.doi.org/10.1088/0953-8984/19/19/489001

>> End of run:  22-JAN-2021  21:44:21
Job completed
