Siesta Version  : v4.1-b4-351
Architecture    : x86_64-linux-n-62-26-19
Compiler version: GNU Fortran (GCC) 9.3.0
Compiler flags  : mpifort -m64 -fPIC -O3 -march=native -ftree-vectorize -fexpensive-optimizatioons -funroll-loops -fprefetch-loop-arrays -fno-second-underscore  -flto
PP flags        : -I/dtu/sw/dcc/SL73/2020-aug/generic/build-tools/1.0/include -I/dtu/sw/dcc/SL773/2020-aug/generic/gcc/9.3.0/include -I/dtu/sw/dcc/SL73/2020-aug/generic/gcc/9.3.0/include -I/dtu/sw/dcc/SL73/2020-aug/XeonE5-2660v3/gnu/9.3.0/zlib/1.2.11/include -I/dtu/sw/dcc/SL73/2020-aug/generic/numactl/2.0.12/include -I/dtu/sw/dcc/SL73/2020-aug/XeonE5-2660v3/gnu/9.3.0/libxml2/2.9.10/include -I/dtu/sw/dcc/SL73/2020-aug/XeonE5-2660v3/gnu/9.3.0/hwloc/2.2.0/include -I/dtu/sw/dcc/SL73/2020-aug/XeonE5-2660v3/gnu/9.3.0/knem/1.1.4/include -I/dtu/sw/dcc/SL73/2020-aug/XeonE5-2660v3/gnu/9.3.0/ucx/1.8.1/include -I/dtu/sw/dcc/SL73/2020-aug/XeonE5-2660v3/gnu/9.3.0/openmpi/4.0.4/include -I/dtu/sw/dcc/SL73/2020-aug/XeonE5-2660v3/gnu/9.3.0/szip/2.1.1/include -I/dtu/sw/dcc/SL73/2020-aug/XeonE5-2660v3/gnu/9.3.0/hdf5/1.12.0/include -I/dtu/sw/dcc/SL73/2020-aug/XeonE5-2660v3/gnu/9.3.0/pnetcdf/1.12.1/include -I/dtu/sw/dcc/SL73/2020-aug/generic/gen-zlib/1.2.11/include -I/dtu/sw/dcc/SL73/2020-aug/generic/openssl/1.1.1/include -I/dtu/sw/dcc/SL73/2020-aug/generic/libssh2/1.8.2/include -I/dtu/sw/dcc/SL73/2020-aug/generic/curl/7.65.1/include -I/dtu/sw/dcc/SL73/2020-aug/XeonE5-2660v3/gnu/9.3.0/netcdf/4.7.4/include -I/dtu/sw/dcc/SL73/2020-aug/XeonE5-2660v3/gnu/9.3.0/flook/0.8.1/include -I/dtu/sw/dcc/SL73/2020-aug/XeonE5-2660v3/gnu/9.3.0/fftw/3.3.8/include -I/dtu/sw/dcc/SL73/2020-aug/XeonE5-2660v3/gnu/9.3.0/parmetis/4.0.3/include -I/dtu/sw/dcc/SL73/2020-aug/XeonE5-2660v3/gnu/9.3.0/scalapack/2.1.0/include -I/dtu/sw/dcc/SL73/2020-aug/XeonE5-2660v3/gnu/9.3.0/lapack/3.9.0/include -I/dtu/sw/dcc/SL73/2020-aug/XeonE5-2660v3/gnu/9.3.0/blis/0.7.0/include -I/dtu/sw/dcc/SL73/2020-aug/XeonE5-2660v3/gnu/9.3.0/scotch/6.0.9/include -I/dtu/sw/dcc/SL73/2020-aug/XeonE5-2660v3/gnu/9.3.0/mumps/5.3.3/include -I/dtu/sw/dcc/SL73/2020-aug/XeonE5-2660v3/gnu/9.3.0/elpa/2020.05.001/include -DSIESTA__ELPA -DMPI -DFC_HAVE_FLUSH -DFC_HAVE_ABORT -DCDF -DCDF4 -DSIESTA__FLOOK  -DNCDF -DNCDF_4 -DNCDF_PARALLEL -DTS_NOCHECKS -DSIESTA__METIS -DSIESTA__MUMPS -DSIESTA__MRRR -I/dtu/sw/dcc/SL73/2020-aug/XeonE5-2660v3/gnu/9.3.0/elpa/2020.05.001/include/elpa
Libraries       : libncdf.a libfdict.a -lnetcdff -lnetcdf -lpnetcdf -lhdf5_hl -lhdf5 -lz  -lzmuumps -lmumps_common -lesmumps -lscotch -lscotcherr -lpord -lparmetis -lmetis -lelpa -lscalapack -llapack -lblis  -L/dtu/sw/dcc/SL73/2020-aug/XeonE5-2660v3/gnu/9.3.0/flook/0.8.1/lib -Wl,-rpath=/dtu/sw/dcc/SL73/2020-aug/XeonE5-2660v3/gnu/9.3.0/flook/0.8.1/lib -lflookall -ldl  -flto -fuse-linker-plugin  -lmetis
PARALLEL version
NetCDF support
NetCDF-4 support
NetCDF-4 MPI-IO support
METIS ordering support
Lua support

* Running on 8 nodes in parallel
>> Start of run:  22-JAN-2021  23:29:07

                           ***********************       
                           *  WELCOME TO SIESTA  *       
                           ***********************       

reinit: Reading from ../var_cell.fdf

reinit: -----------------------------------------------------------------------
reinit: System Name: MgCo3 R-3c -- SZ, 100 R -- variable cell at 100 Gpa
reinit: -----------------------------------------------------------------------
reinit: System Label: var_cell
reinit: -----------------------------------------------------------------------

initatom: Reading input for the pseudopotentials and atomic orbitals ----------
Species number:   1 Atomic number:   12 Label: Mg
Species number:   2 Atomic number:    6 Label: C
Species number:   3 Atomic number:    8 Label: O

Ground state valence configuration:   3s02
Reading pseudopotential information in formatted form from Mg.psf

Valence configuration for pseudopotential generation:
3s( 2.00) rc: 2.59
3p( 0.00) rc: 2.59
3d( 0.00) rc: 2.59
4f( 0.00) rc: 2.59
Ground state valence configuration:   2s02  2p02
Reading pseudopotential information in formatted form from C.psf

Valence configuration for pseudopotential generation:
2s( 2.00) rc: 1.49
2p( 2.00) rc: 1.52
3d( 0.00) rc: 1.58
Ground state valence configuration:   2s02  2p04
Reading pseudopotential information in formatted form from O.psf

Valence configuration for pseudopotential generation:
2s( 2.00) rc: 1.14
2p( 4.00) rc: 1.14
3d( 0.00) rc: 1.14
4f( 0.00) rc: 1.14
For Mg, standard SIESTA heuristics set lmxkb to 1
 (one more than the basis l, including polarization orbitals).
Use PS.lmax or PS.KBprojectors blocks to override.
For C, standard SIESTA heuristics set lmxkb to 2
 (one more than the basis l, including polarization orbitals).
Use PS.lmax or PS.KBprojectors blocks to override.
For O, standard SIESTA heuristics set lmxkb to 2
 (one more than the basis l, including polarization orbitals).
Use PS.lmax or PS.KBprojectors blocks to override.

<basis_specs>
===============================================================================
Mg                   Z=  12    Mass=  24.310        Charge= 0.17977+309
Lmxo=0 Lmxkb= 1    BasisType=split      Semic=F
L=0  Nsemic=0  Cnfigmx=3
          i=1  nzeta=1  polorb=0  (3s)
            splnorm:   0.15000    
               vcte:    0.0000    
               rinn:    0.0000    
               qcoe:    0.0000    
               qyuk:    0.0000    
               qwid:   0.10000E-01
                rcs:    0.0000    
            lambdas:    1.0000    
-------------------------------------------------------------------------------
L=0  Nkbl=1  erefs: 0.17977+309
L=1  Nkbl=1  erefs: 0.17977+309
===============================================================================
</basis_specs>

atom: Called for Mg                    (Z =  12)

read_vps: Pseudopotential generation method:
read_vps: ATM3      Troullier-Martins                       
Valence charge for ps generation:    2.00000

xc_check: Exchange-correlation functional:
xc_check: Ceperley-Alder
V l=0 = -2*Zval/r beyond r=  3.5878
V l=1 = -2*Zval/r beyond r=  3.5878
All V_l potentials equal beyond r=  2.5600
This should be close to max(r_c) in ps generation
All pots = -2*Zval/r beyond r=  3.5878
Using large-core scheme for Vlocal

atom: Estimated core radius    3.58779

atom: Including non-local core corrections could be a good idea
atom: Maximum radius for 4*pi*r*r*local-pseudopot. charge    3.91588
atom: Maximum radius for r*vlocal+2*Zval:    3.63292
GHOST: No ghost state for L =  0
GHOST: No ghost state for L =  1

KBgen: Kleinman-Bylander projectors: 
   l= 0   rc=  2.657845   el= -0.351328   Ekb=  2.184400   kbcos=  0.257081
   l= 1   rc=  2.657845   el= -0.101748   Ekb=  0.525536   kbcos=  0.270508

KBgen: Total number of  Kleinman-Bylander projectors:    4
atom: -------------------------------------------------------------------------

atom: SANKEY-TYPE ORBITALS:

SPLIT: Orbitals with angular momentum L= 0

SPLIT: Basis orbitals for state 3s

SPLIT: PAO cut-off radius determined from an
SPLIT: energy shift=  0.020000 Ry

   izeta = 1
                 lambda =    1.000000
                     rc =    6.619780
                 energy =   -0.332103
                kinetic =    0.289627
    potential(screened) =   -0.621729
       potential(ionic) =   -1.387191
atom: Total number of Sankey-type orbitals:  1

atm_pop: Valence configuration (for local Pseudopot. screening):
 3s( 2.00)                                                            
Vna: chval, zval:    2.00000   2.00000

Vna:  Cut-off radius for the neutral-atom potential:   6.619780

atom: _________________________________________________________________________

<basis_specs>
===============================================================================
C                    Z=   6    Mass=  12.010        Charge= 0.17977+309
Lmxo=1 Lmxkb= 2    BasisType=split      Semic=F
L=0  Nsemic=0  Cnfigmx=2
          i=1  nzeta=1  polorb=0  (2s)
            splnorm:   0.15000    
               vcte:    0.0000    
               rinn:    0.0000    
               qcoe:    0.0000    
               qyuk:    0.0000    
               qwid:   0.10000E-01
                rcs:    0.0000    
            lambdas:    1.0000    
L=1  Nsemic=0  Cnfigmx=2
          i=1  nzeta=1  polorb=0  (2p)
            splnorm:   0.15000    
               vcte:    0.0000    
               rinn:    0.0000    
               qcoe:    0.0000    
               qyuk:    0.0000    
               qwid:   0.10000E-01
                rcs:    0.0000    
            lambdas:    1.0000    
-------------------------------------------------------------------------------
L=0  Nkbl=1  erefs: 0.17977+309
L=1  Nkbl=1  erefs: 0.17977+309
L=2  Nkbl=1  erefs: 0.17977+309
===============================================================================
</basis_specs>

atom: Called for C                     (Z =   6)

read_vps: Pseudopotential generation method:
read_vps: ATM3      Troullier-Martins                       
Valence charge for ps generation:    4.00000

xc_check: Exchange-correlation functional:
xc_check: Ceperley-Alder
V l=0 = -2*Zval/r beyond r=  1.4666
V l=1 = -2*Zval/r beyond r=  1.5038
V l=2 = -2*Zval/r beyond r=  1.5612
All V_l potentials equal beyond r=  1.5612
This should be close to max(r_c) in ps generation
All pots = -2*Zval/r beyond r=  1.5612

VLOCAL1: 99.0% of the norm of Vloc inside     17.809 Ry
VLOCAL1: 99.9% of the norm of Vloc inside     40.586 Ry
atom: Maximum radius for 4*pi*r*r*local-pseudopot. charge    1.88329
atom: Maximum radius for r*vlocal+2*Zval:    1.62091
GHOST: No ghost state for L =  0
GHOST: No ghost state for L =  1
GHOST: No ghost state for L =  2

KBgen: Kleinman-Bylander projectors: 
   l= 0   rc=  1.747182   el= -1.001947   Ekb=  5.181700   kbcos=  0.300603
   l= 1   rc=  1.747182   el= -0.398598   Ekb= -4.328763   kbcos= -0.367074
   l= 2   rc=  1.955272   el=  0.002326   Ekb= -1.016175   kbcos= -0.009979

KBgen: Total number of  Kleinman-Bylander projectors:    9
atom: -------------------------------------------------------------------------

atom: SANKEY-TYPE ORBITALS:

SPLIT: Orbitals with angular momentum L= 0

SPLIT: Basis orbitals for state 2s

SPLIT: PAO cut-off radius determined from an
SPLIT: energy shift=  0.020000 Ry

   izeta = 1
                 lambda =    1.000000
                     rc =    4.191849
                 energy =   -0.983897
                kinetic =    0.886956
    potential(screened) =   -1.870853
       potential(ionic) =   -5.479661

SPLIT: Orbitals with angular momentum L= 1

SPLIT: Basis orbitals for state 2p

SPLIT: PAO cut-off radius determined from an
SPLIT: energy shift=  0.020000 Ry

   izeta = 1
                 lambda =    1.000000
                     rc =    4.870301
                 energy =   -0.379093
                kinetic =    2.545357
    potential(screened) =   -2.924450
       potential(ionic) =   -6.433151
atom: Total number of Sankey-type orbitals:  4

atm_pop: Valence configuration (for local Pseudopot. screening):
 2s( 2.00)                                                            
 2p( 2.00)                                                            
Vna: chval, zval:    4.00000   4.00000

Vna:  Cut-off radius for the neutral-atom potential:   4.870301

atom: _________________________________________________________________________

<basis_specs>
===============================================================================
O                    Z=   8    Mass=  16.000        Charge= 0.17977+309
Lmxo=1 Lmxkb= 2    BasisType=split      Semic=F
L=0  Nsemic=0  Cnfigmx=2
          i=1  nzeta=1  polorb=0  (2s)
            splnorm:   0.15000    
               vcte:    0.0000    
               rinn:    0.0000    
               qcoe:    0.0000    
               qyuk:    0.0000    
               qwid:   0.10000E-01
                rcs:    0.0000    
            lambdas:    1.0000    
L=1  Nsemic=0  Cnfigmx=2
          i=1  nzeta=1  polorb=0  (2p)
            splnorm:   0.15000    
               vcte:    0.0000    
               rinn:    0.0000    
               qcoe:    0.0000    
               qyuk:    0.0000    
               qwid:   0.10000E-01
                rcs:    0.0000    
            lambdas:    1.0000    
-------------------------------------------------------------------------------
L=0  Nkbl=1  erefs: 0.17977+309
L=1  Nkbl=1  erefs: 0.17977+309
L=2  Nkbl=1  erefs: 0.17977+309
===============================================================================
</basis_specs>

atom: Called for O                     (Z =   8)

read_vps: Pseudopotential generation method:
read_vps: ATM3      Troullier-Martins                       
Valence charge for ps generation:    6.00000

xc_check: Exchange-correlation functional:
xc_check: Ceperley-Alder
V l=0 = -2*Zval/r beyond r=  1.1278
V l=1 = -2*Zval/r beyond r=  1.1278
V l=2 = -2*Zval/r beyond r=  1.1278
All V_l potentials equal beyond r=  1.1278
This should be close to max(r_c) in ps generation
All pots = -2*Zval/r beyond r=  1.1278

VLOCAL1: 99.0% of the norm of Vloc inside     34.126 Ry
VLOCAL1: 99.9% of the norm of Vloc inside     77.774 Ry
atom: Maximum radius for 4*pi*r*r*local-pseudopot. charge    1.37759
atom: Maximum radius for r*vlocal+2*Zval:    1.18566
GHOST: No ghost state for L =  0
GHOST: No ghost state for L =  1
GHOST: No ghost state for L =  2

KBgen: Kleinman-Bylander projectors: 
   l= 0   rc=  1.294105   el= -1.742414   Ekb=  9.135903   kbcos=  0.326910
   l= 1   rc=  1.294105   el= -0.676589   Ekb= -8.124878   kbcos= -0.395047
   l= 2   rc=  1.448233   el=  0.002386   Ekb= -2.039267   kbcos= -0.003484

KBgen: Total number of  Kleinman-Bylander projectors:    9
atom: -------------------------------------------------------------------------

atom: SANKEY-TYPE ORBITALS:

SPLIT: Orbitals with angular momentum L= 0

SPLIT: Basis orbitals for state 2s

SPLIT: PAO cut-off radius determined from an
SPLIT: energy shift=  0.020000 Ry

   izeta = 1
                 lambda =    1.000000
                     rc =    3.305093
                 energy =   -1.723766
                kinetic =    1.614911
    potential(screened) =   -3.338677
       potential(ionic) =  -11.304675

SPLIT: Orbitals with angular momentum L= 1

SPLIT: Basis orbitals for state 2p

SPLIT: PAO cut-off radius determined from an
SPLIT: energy shift=  0.020000 Ry

   izeta = 1
                 lambda =    1.000000
                     rc =    3.937239
                 energy =   -0.658841
                kinetic =    5.005986
    potential(screened) =   -5.664827
       potential(ionic) =  -13.452360
atom: Total number of Sankey-type orbitals:  4

atm_pop: Valence configuration (for local Pseudopot. screening):
 2s( 2.00)                                                            
 2p( 4.00)                                                            
Vna: chval, zval:    6.00000   6.00000

Vna:  Cut-off radius for the neutral-atom potential:   3.937239

atom: _________________________________________________________________________

prinput: Basis input ----------------------------------------------------------

PAO.BasisType split     

%block ChemicalSpeciesLabel
    1   12 Mg                      # Species index, atomic number, species label
    2    6 C                       # Species index, atomic number, species label
    3    8 O                       # Species index, atomic number, species label
%endblock ChemicalSpeciesLabel

%block PAO.Basis                 # Define Basis set
Mg                    1                    # Species label, number of l-shells
 n=3   0   1                         # n, l, Nzeta 
   6.620   
   1.000   
C                     2                    # Species label, number of l-shells
 n=2   0   1                         # n, l, Nzeta 
   4.192   
   1.000   
 n=2   1   1                         # n, l, Nzeta 
   4.870   
   1.000   
O                     2                    # Species label, number of l-shells
 n=2   0   1                         # n, l, Nzeta 
   3.305   
   1.000   
 n=2   1   1                         # n, l, Nzeta 
   3.937   
   1.000   
%endblock PAO.Basis

prinput: ----------------------------------------------------------------------

Dumping basis to NetCDF file Mg.ion.nc
Dumping basis to NetCDF file C.ion.nc
Dumping basis to NetCDF file O.ion.nc
coor:   Atomic-coordinates input format  =     Fractional

siesta: Atomic coordinates (Bohr) and species
siesta:      0.00000   0.00000   0.00000  1        1
siesta:     12.51930   5.59740   3.66414  1        2
siesta:      6.25965   2.79870   1.83207  2        3
siesta:     -6.25965  -2.79870  -1.83207  2        4
siesta:      7.25136   0.58061   1.83207  3        5
siesta:      6.25965   4.12944  -0.20079  3        6
siesta:      5.26794   3.68605   3.86493  3        7
siesta:     -7.25136  -0.58061  -1.83207  3        8
siesta:     -6.25965  -4.12944   0.20079  3        9
siesta:     -5.26794  -3.68605  -3.86493  3       10

siesta: System type = bulk      

initatomlists: Number of atoms, orbitals, and projectors:     10    34    80

siesta: ******************** Simulation parameters ****************************
siesta:
siesta: The following are some of the parameters of the simulation.
siesta: A complete list of the parameters used, including default values,
siesta: can be found in file out.fdf
siesta:
redata: Spin configuration                          = none
redata: Number of spin components                   = 1
redata: Time-Reversal Symmetry                      = T
redata: Spin spiral                                 = F
redata: Long output                                 =   F
redata: Number of Atomic Species                    =        3
redata: Charge density info will appear in .RHO file
redata: Write Mulliken Pop.                         = NO
redata: Matel table size (NRTAB)                    =     1024
redata: Mesh Cutoff                                 =   100.0000 Ry
redata: Net charge of the system                    =     0.0000 |e|
redata: Min. number of SCF Iter                     =        0
redata: Max. number of SCF Iter                     =     1000
redata: SCF convergence failure will abort job
redata: SCF mix quantity                            = Hamiltonian
redata: Mix DM or H after convergence               =   F
redata: Recompute H after scf cycle                 =   F
redata: Mix DM in first SCF step                    =   T
redata: Write Pulay info on disk                    =   F
redata: New DM Occupancy tolerance                  = 0.000000000001
redata: No kicks to SCF
redata: DM Mixing Weight for Kicks                  =     0.5000
redata: Require Harris convergence for SCF          =   F
redata: Harris energy tolerance for SCF             =     0.000100 eV
redata: Require DM convergence for SCF              =   T
redata: DM tolerance for SCF                        =     0.001000
redata: Require EDM convergence for SCF             =   F
redata: EDM tolerance for SCF                       =     0.001000 eV
redata: Require H convergence for SCF               =   T
redata: Hamiltonian tolerance for SCF               =     0.001000 eV
redata: Require (free) Energy convergence for SCF   =   F
redata: (free) Energy tolerance for SCF             =     0.000100 eV
redata: Using Saved Data (generic)                  =   F
redata: Use continuation files for DM               =   T
redata: Neglect nonoverlap interactions             =   F
redata: Method of Calculation                       = Diagonalization
redata: Electronic Temperature                      =   299.9869 K
redata: Fix the spin of the system                  =   F
redata: Dynamics option                             = Broyden coord. optimization
redata: Variable cell                               =   T
redata: Maximum number of optimization moves        =       30
redata: Force tolerance                             =     0.0400 eV/Ang
redata: Stress tolerance                            =     2.0000 GPa
mix.SCF: Broyden mixing                          = Broyden
mix.SCF:    History steps                        = 4
mix.SCF:    Linear mixing weight                 =     0.100000
mix.SCF:    Inverse Jacobian weight              =     0.100000
mix.SCF:    Weight prime                         =     0.100000
mix.SCF:    SVD condition                        = 0.1000E-07
redata: Save all siesta data in one NC              =   F
redata: ***********************************************************************

%block SCF.Mixers
  Broyden
%endblock SCF.Mixers

%block SCF.Mixer.Broyden
  # Mixing method
  method broyden

  # Mixing options
  weight 0.1000
  weight.linear 0.1000
  weight.prime 0.1000
  history 4
%endblock SCF.Mixer.Broyden

DM_history_depth set to one: no extrapolation allowed by default for geometry relaxation
Size of DM history Fstack: 1
Total number of electrons:    48.000000
Total ionic charge:    48.000000

* ProcessorY, Blocksize:    2   4


* Orbital distribution balance (max,min):     6     4

 Kpoints in:          154 . Kpoints trimmed:          154

siesta: k-grid: Number of k-points =   154
siesta: k-grid: Cutoff (effective) =    16.222 Ang
siesta: k-grid: Supercell and displacements
siesta: k-grid:   -7   0   7      0.500
siesta: k-grid:    0  -7   7      0.000
siesta: k-grid:    0   0   6      0.000

diag: Algorithm                                     = Expert
diag: Parallel over k                               =   F
diag: Use parallel 2D distribution                  =   T
diag: Parallel block-size                           = 4
diag: Parallel distribution                         =     2 x     4
diag: Used triangular part                          = Lower
diag: Absolute tolerance                            =  0.100E-15
diag: Orthogonalization factor                      =  0.100E-05
diag: Memory factor                                 =  1.0000

superc: Internal auxiliary supercell:     5 x     5 x     5  =     125
superc: Number of atoms, orbitals, and projectors:   1250   4250  10000


ts: **************************************************************
ts: Save H and S matrices                           =    F
ts: Save DM and EDM matrices                        =    F
ts: Only save the overlap matrix S                  =    F
ts: **************************************************************

************************ Begin: TS CHECKS AND WARNINGS ************************
************************ End: TS CHECKS AND WARNINGS **************************


                     ====================================
                        Begin Broyden opt. move =      0
                     ====================================

outcoor: Atomic coordinates (fractional):                   
    0.00000000    0.00000000    0.00000000   1       1  Mg
    0.50000000    0.50000000    0.50000000   1       2  Mg
    0.25000000    0.25000000    0.25000000   2       3  C
   -0.25000000   -0.25000000   -0.25000000   2       4  C
    0.52740000   -0.02740000    0.25000000   3       5  O
    0.25000000    0.52740000   -0.02740000   3       6  O
   -0.02740000    0.25000000    0.52740000   3       7  O
   -0.52740000    0.02740000   -0.25000000   3       8  O
   -0.25000000   -0.52740000    0.02740000   3       9  O
    0.02740000   -0.25000000   -0.52740000   3      10  O

superc: Internal auxiliary supercell:     5 x     5 x     5  =     125
superc: Number of atoms, orbitals, and projectors:   1250   4250  10000

outcell: Unit cell vectors (Ang):
        5.677830    0.000000    0.000000
        3.786009    4.231299    0.000000
        3.786009    1.692731    3.877957

outcell: Cell vector modules (Ang)   :    5.677830    5.677830    5.677830
outcell: Cell angles (23,13,12) (deg):     48.1790     48.1790     48.1790
outcell: Cell volume (Ang**3)        :     93.1663
<dSpData1D:S at geom step 0
  <sparsity:sparsity for geom step 0
    nrows_g=34 nrows=6 sparsity=2.0311 nnzs=2348, refcount: 7>
  <dData1D:(new from dSpData1D) n=2348, refcount: 1>
refcount: 1>
new_DM -- step:     1
Initializing Density Matrix...

Attempting to read DM from file... Failed...
DM filled with atomic data:
<dSpData2D:DM initialized from atoms
  <sparsity:sparsity for geom step 0
    nrows_g=34 nrows=6 sparsity=2.0311 nnzs=2348, refcount: 8>
  <dData2D:DM n=2348 m=1, refcount: 1>
refcount: 1>
No. of atoms with KB's overlaping orbs in proc 0. Max # of overlaps:      89      85
New grid distribution:   1
           1       1:   16    1:    8    1:    4
           2       1:   16    1:    8    5:    8
           3       1:   16    1:    8    9:   12
           4       1:   16    1:    8   13:   16
           5       1:   16    9:   16    1:    4
           6       1:   16    9:   16    5:    8
           7       1:   16    9:   16    9:   12
           8       1:   16    9:   16   13:   16

InitMesh: MESH =    32 x    32 x    32 =       32768
InitMesh: (bp) =    16 x    16 x    16 =        4096
InitMesh: Mesh cutoff (required, used) =   100.000   112.857 Ry
ExtMesh (bp) on 0 =    76 x    68 x    64 =      330752
New grid distribution:   2
           1       8:   16    1:    8    1:    8
           2       9:   16    9:   16    1:    8
           3       1:    8    1:    8    9:   16
           4       1:    7    1:    8    1:    8
           5       9:   16    1:    8    9:   16
           6       1:    8    9:   16    1:    8
           7       1:    9    9:   16    9:   16
           8      10:   16    9:   16    9:   16
New grid distribution:   3
           1       1:    8    9:   16    9:   16
           2       9:   16    1:    8    1:    8
           3       9:   16    1:    8    9:   16
           4       9:   16    9:   16    1:    8
           5       1:    8    1:    8    9:   16
           6       1:    8    1:    8    1:    8
           7       9:   16    9:   16    9:   16
           8       1:    8    9:   16    1:    8
Setting up quadratic distribution...
ExtMesh (bp) on 0 =    69 x    68 x    68 =      319056
PhiOnMesh: Number of (b)points on node 0 =                  576
PhiOnMesh: nlist on node 0 =                12062

stepf: Fermi-Dirac step function

siesta: Program's energy decomposition (eV):
siesta: Ebs     =      -559.103011
siesta: Eions   =      5228.674091
siesta: Ena     =      1092.439512
siesta: Ekin    =      2369.588200
siesta: Enl     =      -394.299670
siesta: Eso     =         0.000000
siesta: Edftu   =         0.000000
siesta: DEna    =       -90.110602
siesta: DUscf   =        20.800222
siesta: DUext   =         0.000000
siesta: Exc     =      -719.553827
siesta: eta*DQ  =         0.000000
siesta: Emadel  =         0.000000
siesta: Emeta   =         0.000000
siesta: Emolmec =         0.000000
siesta: Ekinion =         0.000000
siesta: Eharris =     -2906.062356
siesta: Etot    =     -2949.810257
siesta: FreeEng =     -2949.810257

        iscf     Eharris(eV)        E_KS(eV)     FreeEng(eV)     dDmax    Ef(eV) dHmax(eV)
   scf:    1    -2906.062356    -2949.810257    -2949.810257  1.752580 -2.750667  4.613285
timer: Routine,Calls,Time,% = IterSCF        1       1.099  61.50
   scf:    2    -2955.516986    -2952.761322    -2952.761322  0.067420 -2.830885  3.515768
   scf:    3    -2958.948601    -2957.457306    -2957.457306  0.303392 -3.058347  0.886808
   scf:    4    -2957.490330    -2957.474085    -2957.474085  0.004162 -3.043858  0.811133
   scf:    5    -2957.627846    -2957.567452    -2957.567452  0.032457 -2.753580  0.042784
   scf:    6    -2957.567569    -2957.567577    -2957.567577  0.002396 -2.754410  0.022448
   scf:    7    -2957.567780    -2957.567680    -2957.567680  0.000417 -2.759609  0.017385
   scf:    8    -2957.567902    -2957.567806    -2957.567806  0.001186 -2.773515  0.001845
   scf:    9    -2957.567807    -2957.567807    -2957.567807  0.000096 -2.774593  0.000642

SCF Convergence by DM+H criterion
max |DM_out - DM_in|         :     0.0000955472
max |H_out - H_in|      (eV) :     0.0006422161
SCF cycle converged after 9 iterations

Using DM_out to compute the final energy and forces
No. of atoms with KB's overlaping orbs in proc 0. Max # of overlaps:      89      85

siesta: E_KS(eV) =            -2957.5678

siesta: E_KS - E_eggbox =     -2957.5678

siesta: Atomic forces (eV/Ang):
     1   -0.000000   -0.000000   -0.000000
     2   -0.000000    0.000000    0.000000
     3    0.000000    0.000000   -0.000000
     4   -0.000000   -0.000000    0.000000
     5    3.222488   -7.207504   -0.000000
     6    0.000000    4.324141   -6.605628
     7   -3.222488    2.883363    6.605629
     8   -3.222488    7.207504    0.000000
     9   -0.000000   -4.324141    6.605628
    10    3.222488   -2.883363   -6.605629
----------------------------------------
   Tot   -0.000000    0.000000    0.000000
----------------------------------------
   Max    7.207504
   Res    3.530794    sqrt( Sum f_i^2 / 3N )
----------------------------------------
   Max    7.207504    constrained

Stress tensor Voigt[x,y,z,yz,xz,xy] (kbar):       88.79     -228.54     -273.85       51.90      116.08      177.33
(Free)E + p*V (eV/cell)    -2949.5508
Target enthalpy (eV/cell)    -2899.4186

siesta: Stress tensor (static) (eV/Ang**3):
         0.055415    0.110677    0.072451
         0.110677   -0.142645    0.032393
         0.072451    0.032393   -0.170924

siesta: Pressure (static):        137.87036587  kBar

siesta: Stress tensor (total) (eV/Ang**3):
         0.055415    0.110677    0.072451
         0.110677   -0.142645    0.032393
         0.072451    0.032393   -0.170924

siesta: Pressure (total):        137.87036587  kBar

Broyden_optim: max_history for broyden:   6
Broyden_optim: cycle on maxit: T
Broyden_optim: initial inverse jacobian:   1.0000

Broyden_optim: No of elements:     36

Broyden_optim: No target stress found, assuming hydrostatic MD.TargetPressure.

Broyden_optim: Target stress (kBar)
Broyden_optim:     -1000.000       0.000       0.000
Broyden_optim:         0.000   -1000.000       0.000
Broyden_optim:         0.000       0.000   -1000.000

                     ====================================
                        Begin Broyden opt. move =      1
                     ====================================

outcoor: Atomic coordinates (fractional):                   
   -0.00000000   -0.00000000   -0.00000000   1       1  Mg
    0.50000000    0.50000000    0.50000000   1       2  Mg
    0.25000000    0.25000000    0.25000000   2       3  C
   -0.25000000   -0.25000000   -0.25000000   2       4  C
    0.53908118   -0.03908118    0.25000000   3       5  O
    0.25000000    0.53908118   -0.03908118   3       6  O
   -0.03908118    0.25000000    0.53908118   3       7  O
   -0.53908118    0.03908118   -0.25000000   3       8  O
   -0.25000000   -0.53908118    0.03908118   3       9  O
    0.03908118   -0.25000000   -0.53908118   3      10  O
 Kpoints in:          154 . Kpoints trimmed:          154

siesta: k-grid: Number of k-points =   154
siesta: k-grid: Cutoff (effective) =    15.685 Ang
siesta: k-grid: Supercell and displacements
siesta: k-grid:    7   0  -7      0.500
siesta: k-grid:    7  -7   0      0.000
siesta: k-grid:    6   0   0      0.000

superc: Internal auxiliary supercell:     5 x     5 x     5  =     125
superc: Number of atoms, orbitals, and projectors:   1250   4250  10000

outcell: Unit cell vectors (Ang):
        5.381888   -0.048199   -0.031552
        3.552754    4.042893   -0.031552
        3.552754    1.588442    3.717906

outcell: Cell vector modules (Ang)   :    5.382196    5.382196    5.382196
outcell: Cell angles (23,13,12) (deg):     49.2043     49.2043     49.2043
outcell: Cell volume (Ang**3)        :     82.0826
<dSpData1D:S at geom step 1
  <sparsity:sparsity for geom step 1
    nrows_g=34 nrows=6 sparsity=2.2803 nnzs=2636, refcount: 7>
  <dData1D:(new from dSpData1D) n=2636, refcount: 1>
refcount: 1>
new_DM -- step:     2
Re-using DM from previous geometries...
Number of DMs in history: 1
 DM extrapolation coefficients: 
1   1.00000
New DM after history re-use:
<dSpData2D:SpM extrapolated using coords
  <sparsity:sparsity for geom step 1
    nrows_g=34 nrows=6 sparsity=2.2803 nnzs=2636, refcount: 9>
  <dData2D:(temp array for extrapolation) n=2636 m=1, refcount: 1>
refcount: 1>
No. of atoms with KB's overlaping orbs in proc 0. Max # of overlaps:      97      93
New grid distribution:   1
           1       1:   15    1:    8    1:    4
           2       1:   15    1:    8    5:    8
           3       1:   15    1:    8    9:   12
           4       1:   15    1:    8   13:   15
           5       1:   15    9:   15    1:    4
           6       1:   15    9:   15    5:    8
           7       1:   15    9:   15    9:   12
           8       1:   15    9:   15   13:   15

InitMesh: MESH =    30 x    30 x    30 =       27000
InitMesh: (bp) =    15 x    15 x    15 =        3375
InitMesh: Mesh cutoff (required, used) =   100.000   111.674 Ry
ExtMesh (bp) on 0 =    75 x    68 x    64 =      326400
New grid distribution:   2
           1       1:    8    9:   15    8:   15
           2       8:   15    1:    7    1:    7
           3       8:   15    1:    8    8:   15
           4       1:    7    8:   15    1:    7
           5       1:    7    1:    8    8:   15
           6       8:   15    8:   15    1:    7
           7       9:   15    9:   15    8:   15
           8       1:    7    1:    7    1:    7
New grid distribution:   3
           1       1:    8    1:    8    1:    8
           2       9:   15    9:   15    1:    8
           3       1:    8    1:    8    9:   15
           4       9:   15    1:    8    9:   15
           5       1:    8    9:   15    1:    8
           6       9:   15    1:    8    1:    8
           7       1:    8    9:   15    9:   15
           8       9:   15    9:   15    9:   15
Setting up quadratic distribution...
ExtMesh (bp) on 0 =    68 x    67 x    68 =      309808
PhiOnMesh: Number of (b)points on node 0 =                  448
PhiOnMesh: nlist on node 0 =                10659

        iscf     Eharris(eV)        E_KS(eV)     FreeEng(eV)     dDmax    Ef(eV) dHmax(eV)
   scf:    1    -2958.135214    -2958.867258    -2958.867258  0.048588 -3.376082  0.376509
   scf:    2    -2958.856948    -2958.868602    -2958.868602  0.020635 -3.094130  0.215673
   scf:    3    -2958.878916    -2958.874589    -2958.874589  0.007426 -3.176896  0.058294
   scf:    4    -2958.875997    -2958.875536    -2958.875536  0.003975 -3.151386  0.001645
   scf:    5    -2958.875536    -2958.875536    -2958.875536  0.000060 -3.150292  0.000461

SCF Convergence by DM+H criterion
max |DM_out - DM_in|         :     0.0000602631
max |H_out - H_in|      (eV) :     0.0004607623
SCF cycle converged after 5 iterations

Using DM_out to compute the final energy and forces
No. of atoms with KB's overlaping orbs in proc 0. Max # of overlaps:      97      93

siesta: E_KS(eV) =            -2958.8755

siesta: Atomic forces (eV/Ang):
     1   -0.000000   -0.000000    0.000000
     2    0.000000    0.000000    0.000000
     3    0.000000   -0.000000   -0.000000
     4   -0.000000    0.000000    0.000000
     5    2.497258   -5.585437    0.000000
     6    0.000000    3.350984   -5.119016
     7   -2.497259    2.234454    5.119016
     8   -2.497258    5.585437   -0.000000
     9   -0.000000   -3.350984    5.119016
    10    2.497259   -2.234454   -5.119016
----------------------------------------
   Tot    0.000000   -0.000000   -0.000000
----------------------------------------
   Max    5.585437
   Res    2.736180    sqrt( Sum f_i^2 / 3N )
----------------------------------------
   Max    5.585437    constrained

Stress tensor Voigt[x,y,z,yz,xz,xy] (kbar):      -28.61     -352.08     -398.26       52.90      118.32      180.75
(Free)E + p*V (eV/cell)    -2945.5733
Target enthalpy (eV/cell)    -2907.6442

siesta: Stress tensor (static) (eV/Ang**3):
        -0.017858    0.112817    0.073852
         0.112817   -0.219747    0.033019
         0.073852    0.033019   -0.248572

siesta: Pressure (static):        259.65013170  kBar

siesta: Stress tensor (total) (eV/Ang**3):
        -0.017858    0.112817    0.073852
         0.112817   -0.219747    0.033019
         0.073852    0.033019   -0.248572

siesta: Pressure (total):        259.65013170  kBar

                     ====================================
                        Begin Broyden opt. move =      2
                     ====================================

outcoor: Atomic coordinates (fractional):                   
   -0.00000000   -0.00000000   -0.00000000   1       1  Mg
    0.50000000    0.50000000    0.50000000   1       2  Mg
    0.25000001    0.25000000    0.25000000   2       3  C
   -0.25000001   -0.25000000   -0.25000000   2       4  C
    0.57505777   -0.07505777    0.25000000   3       5  O
    0.25000001    0.57505779   -0.07505777   3       6  O
   -0.07505778    0.24999999    0.57505778   3       7  O
   -0.57505777    0.07505777   -0.25000000   3       8  O
   -0.25000001   -0.57505779    0.07505777   3       9  O
    0.07505778   -0.24999999   -0.57505778   3      10  O
 Kpoints in:          280 . Kpoints trimmed:          280

siesta: k-grid: Number of k-points =   280
siesta: k-grid: Cutoff (effective) =    15.519 Ang
siesta: k-grid: Supercell and displacements
siesta: k-grid:    8   0  -8      0.500
siesta: k-grid:    8  -8   0      0.500
siesta: k-grid:    7   0   0      0.000

superc: Internal auxiliary supercell:     5 x     5 x     5  =     125
superc: Number of atoms, orbitals, and projectors:   1250   4250  10000

outcell: Unit cell vectors (Ang):
        4.425697   -0.226125   -0.148025
        2.782564    3.448952   -0.148025
        2.782564    1.244089    3.220158

outcell: Cell vector modules (Ang)   :    4.433942    4.433942    4.433942
outcell: Cell angles (23,13,12) (deg):     53.9963     53.9963     53.9963
outcell: Cell volume (Ang**3)        :     52.9950
<dSpData1D:S at geom step 2
  <sparsity:sparsity for geom step 2
    nrows_g=34 nrows=6 sparsity=3.2509 nnzs=3758, refcount: 7>
  <dData1D:(new from dSpData1D) n=3758, refcount: 1>
refcount: 1>
new_DM -- step:     3
Re-using DM from previous geometries...
Number of DMs in history: 1
 DM extrapolation coefficients: 
1   1.00000
New DM after history re-use:
<dSpData2D:SpM extrapolated using coords
  <sparsity:sparsity for geom step 2
    nrows_g=34 nrows=6 sparsity=3.2509 nnzs=3758, refcount: 9>
  <dData2D:(temp array for extrapolation) n=3758 m=1, refcount: 1>
refcount: 1>
Note: For starting DM, Qtot, Tr[D*S] =         48.00000000         47.63599924
No. of atoms with KB's overlaping orbs in proc 0. Max # of overlaps:     121     123
New grid distribution:   1
           1       1:   12    1:    6    1:    3
           2       1:   12    1:    6    4:    6
           3       1:   12    1:    6    7:    9
           4       1:   12    1:    6   10:   12
           5       1:   12    7:   12    1:    3
           6       1:   12    7:   12    4:    6
           7       1:   12    7:   12    7:    9
           8       1:   12    7:   12   10:   12

InitMesh: MESH =    24 x    24 x    24 =       13824
InitMesh: (bp) =    12 x    12 x    12 =        1728
InitMesh: Mesh cutoff (required, used) =   100.000   111.653 Ry
ExtMesh (bp) on 0 =    64 x    58 x    55 =      204160
New grid distribution:   2
           1       1:    6    7:   12    7:   12
           2       7:   12    1:    6    1:    6
           3       7:   12    1:    6    7:   12
           4       7:   12    7:   12    1:    6
           5       1:    6    1:    6    7:   12
           6       1:    6    1:    6    1:    6
           7       7:   12    7:   12    7:   12
           8       1:    6    7:   12    1:    6
New grid distribution:   3
           1       1:    6    7:   12    7:   12
           2       7:   12    1:    6    1:    6
           3       7:   12    1:    6    7:   12
           4       7:   12    7:   12    1:    6
           5       1:    6    1:    6    7:   12
           6       1:    6    1:    6    1:    6
           7       7:   12    7:   12    7:   12
           8       1:    6    7:   12    1:    6
Setting up quadratic distribution...
ExtMesh (bp) on 0 =    58 x    58 x    58 =      195112
PhiOnMesh: Number of (b)points on node 0 =                  216
PhiOnMesh: nlist on node 0 =                 8197

        iscf     Eharris(eV)        E_KS(eV)     FreeEng(eV)     dDmax    Ef(eV) dHmax(eV)
   scf:    1    -2929.764595    -2945.583863    -2945.583863  0.124786 -4.177020  0.814164
   scf:    2    -2945.578222    -2945.611593    -2945.611593  0.049673 -3.523368  0.276777
   scf:    3    -2945.654171    -2945.634943    -2945.634943  0.012037 -3.630193  0.239459
   scf:    4    -2945.649318    -2945.644961    -2945.644961  0.015153 -3.615464  0.007710
   scf:    5    -2945.644970    -2945.644966    -2945.644966  0.000070 -3.614931  0.006994
   scf:    6    -2945.644981    -2945.644974    -2945.644974  0.000094 -3.614686  0.005106
   scf:    7    -2945.644988    -2945.644981    -2945.644981  0.000145 -3.614165  0.002209
   scf:    8    -2945.644984    -2945.644983    -2945.644983  0.000085 -3.613892  0.000533

SCF Convergence by DM+H criterion
max |DM_out - DM_in|         :     0.0000848557
max |H_out - H_in|      (eV) :     0.0005327615
SCF cycle converged after 8 iterations

Using DM_out to compute the final energy and forces
No. of atoms with KB's overlaping orbs in proc 0. Max # of overlaps:     121     123

siesta: E_KS(eV) =            -2945.6450

siesta: Atomic forces (eV/Ang):
     1   -0.000000   -0.000000    0.000000
     2    0.000000    0.000000   -0.000000
     3   -0.000001    0.000002   -0.000001
     4    0.000001   -0.000002    0.000001
     5   -1.372612    3.070021    0.000000
     6   -0.000003   -1.841865    2.813655
     7    1.372614   -1.228162   -2.813657
     8    1.372612   -3.070021   -0.000000
     9    0.000003    1.841865   -2.813655
    10   -1.372614    1.228162    2.813657
----------------------------------------
   Tot   -0.000000   -0.000000   -0.000000
----------------------------------------
   Max    3.070021
   Res    1.503936    sqrt( Sum f_i^2 / 3N )
----------------------------------------
   Max    3.070021    constrained

Stress tensor Voigt[x,y,z,yz,xz,xy] (kbar):    -2296.88    -2303.90    -2304.90        1.15        2.57        3.92
(Free)E + p*V (eV/cell)    -2869.5064
Target enthalpy (eV/cell)    -2912.5685

siesta: Stress tensor (static) (eV/Ang**3):
        -1.433582    0.002448    0.001603
         0.002448   -1.437963    0.000717
         0.001603    0.000717   -1.438589

siesta: Pressure (static):       2301.89008376  kBar

siesta: Stress tensor (total) (eV/Ang**3):
        -1.433582    0.002448    0.001603
         0.002448   -1.437963    0.000717
         0.001603    0.000717   -1.438589

siesta: Pressure (total):       2301.89008376  kBar

                     ====================================
                        Begin Broyden opt. move =      3
                     ====================================

outcoor: Atomic coordinates (fractional):                   
   -0.00000000   -0.00000000   -0.00000000   1       1  Mg
    0.50000000    0.50000000    0.50000000   1       2  Mg
    0.25000000    0.25000000    0.25000000   2       3  C
   -0.25000000   -0.25000000   -0.25000000   2       4  C
    0.57046125   -0.07046125    0.25000000   3       5  O
    0.25000000    0.57046127   -0.07046125   3       6  O
   -0.07046126    0.24999999    0.57046125   3       7  O
   -0.57046125    0.07046125   -0.25000000   3       8  O
   -0.25000000   -0.57046127    0.07046125   3       9  O
    0.07046126   -0.24999999   -0.57046125   3      10  O
 Kpoints in:          280 . Kpoints trimmed:          280

siesta: k-grid: Number of k-points =   280
siesta: k-grid: Cutoff (effective) =    15.988 Ang
siesta: k-grid: Supercell and displacements
siesta: k-grid:    8   0  -8      0.500
siesta: k-grid:    8  -8   0      0.500
siesta: k-grid:    7   0   0      0.000

superc: Internal auxiliary supercell:     5 x     5 x     5  =     125
superc: Number of atoms, orbitals, and projectors:   1250   4250  10000

outcell: Unit cell vectors (Ang):
        4.561383   -0.206862   -0.135415
        2.887396    3.537223   -0.135415
        2.887396    1.290960    3.296014

outcell: Cell vector modules (Ang)   :    4.568078    4.568078    4.568078
outcell: Cell angles (23,13,12) (deg):     53.3469     53.3469     53.3469
outcell: Cell volume (Ang**3)        :     56.9052
<dSpData1D:S at geom step 3
  <sparsity:sparsity for geom step 3
    nrows_g=34 nrows=6 sparsity=3.1747 nnzs=3670, refcount: 7>
  <dData1D:(new from dSpData1D) n=3670, refcount: 1>
refcount: 1>
new_DM -- step:     4
Re-using DM from previous geometries...
Number of DMs in history: 1
 DM extrapolation coefficients: 
1   1.00000
New DM after history re-use:
<dSpData2D:SpM extrapolated using coords
  <sparsity:sparsity for geom step 3
    nrows_g=34 nrows=6 sparsity=3.1747 nnzs=3670, refcount: 9>
  <dData2D:(temp array for extrapolation) n=3670 m=1, refcount: 1>
refcount: 1>
Note: For starting DM, Qtot, Tr[D*S] =         48.00000000         48.22116981
No. of atoms with KB's overlaping orbs in proc 0. Max # of overlaps:     121     117
New grid distribution:   1
           1       1:   12    1:    6    1:    3
           2       1:   12    1:    6    4:    6
           3       1:   12    1:    6    7:    9
           4       1:   12    1:    6   10:   12
           5       1:   12    7:   12    1:    3
           6       1:   12    7:   12    4:    6
           7       1:   12    7:   12    7:    9
           8       1:   12    7:   12   10:   12

InitMesh: MESH =    24 x    24 x    24 =       13824
InitMesh: (bp) =    12 x    12 x    12 =        1728
InitMesh: Mesh cutoff (required, used) =   100.000   104.317 Ry
ExtMesh (bp) on 0 =    64 x    58 x    55 =      204160
New grid distribution:   2
           1       1:    6    7:   12    7:   12
           2       7:   12    1:    6    1:    6
           3       7:   12    1:    6    7:   12
           4       7:   12    7:   12    1:    6
           5       1:    6    1:    6    7:   12
           6       1:    6    1:    6    1:    6
           7       7:   12    7:   12    7:   12
           8       1:    6    7:   12    1:    6
New grid distribution:   3
           1       1:    6    7:   12    7:   12
           2       7:   12    1:    6    1:    6
           3       7:   12    1:    6    7:   12
           4       7:   12    7:   12    1:    6
           5       1:    6    1:    6    7:   12
           6       1:    6    1:    6    1:    6
           7       7:   12    7:   12    7:   12
           8       1:    6    7:   12    1:    6
Setting up quadratic distribution...
ExtMesh (bp) on 0 =    58 x    58 x    58 =      195112
PhiOnMesh: Number of (b)points on node 0 =                  216
PhiOnMesh: nlist on node 0 =                 7662

        iscf     Eharris(eV)        E_KS(eV)     FreeEng(eV)     dDmax    Ef(eV) dHmax(eV)
   scf:    1    -2953.928509    -2950.731533    -2950.731533  0.022820 -3.707560  0.172388
   scf:    2    -2950.717319    -2950.729522    -2950.729522  0.018493 -3.829783  0.139642
   scf:    3    -2950.738418    -2950.734878    -2950.734878  0.008049 -3.785180  0.079259
   scf:    4    -2950.735744    -2950.735468    -2950.735468  0.003176 -3.805209  0.003026
   scf:    5    -2950.735469    -2950.735469    -2950.735469  0.000118 -3.805813  0.000831

SCF Convergence by DM+H criterion
max |DM_out - DM_in|         :     0.0001184633
max |H_out - H_in|      (eV) :     0.0008312059
SCF cycle converged after 5 iterations

Using DM_out to compute the final energy and forces
No. of atoms with KB's overlaping orbs in proc 0. Max # of overlaps:     121     117

siesta: E_KS(eV) =            -2950.7355

siesta: Atomic forces (eV/Ang):
     1    0.000000    0.000000   -0.000000
     2   -0.000000   -0.000000    0.000000
     3   -0.000001    0.000001   -0.000000
     4    0.000001   -0.000002    0.000000
     5   -0.782893    1.751042   -0.000001
     6   -0.000003   -1.050541    1.604820
     7    0.782896   -0.700503   -1.604819
     8    0.782893   -1.751042    0.000000
     9    0.000003    1.050541   -1.604820
    10   -0.782896    0.700503    1.604819
----------------------------------------
   Tot   -0.000000   -0.000000   -0.000000
----------------------------------------
   Max    1.751042
   Res    0.857797    sqrt( Sum f_i^2 / 3N )
----------------------------------------
   Max    1.751042    constrained

Stress tensor Voigt[x,y,z,yz,xz,xy] (kbar):    -1620.87    -1664.44    -1670.66        7.13       15.94       24.35
(Free)E + p*V (eV/cell)    -2892.0616
Target enthalpy (eV/cell)    -2915.2184

siesta: Stress tensor (static) (eV/Ang**3):
        -1.011655    0.015198    0.009949
         0.015198   -1.038853    0.004448
         0.009949    0.004448   -1.042736

siesta: Pressure (static):       1651.99215866  kBar

siesta: Stress tensor (total) (eV/Ang**3):
        -1.011655    0.015198    0.009949
         0.015198   -1.038853    0.004448
         0.009949    0.004448   -1.042736

siesta: Pressure (total):       1651.99215866  kBar

                     ====================================
                        Begin Broyden opt. move =      4
                     ====================================

outcoor: Atomic coordinates (fractional):                   
    0.00000000    0.00000000   -0.00000000   1       1  Mg
    0.50000000    0.50000000    0.50000000   1       2  Mg
    0.25000000    0.25000000    0.25000000   2       3  C
   -0.25000000   -0.25000001   -0.25000000   2       4  C
    0.55871843   -0.05871842    0.25000000   3       5  O
    0.24999999    0.55871842   -0.05871843   3       6  O
   -0.05871842    0.25000001    0.55871844   3       7  O
   -0.55871843    0.05871842   -0.25000000   3       8  O
   -0.24999999   -0.55871842    0.05871843   3       9  O
    0.05871842   -0.25000001   -0.55871843   3      10  O
 Kpoints in:          196 . Kpoints trimmed:          172

siesta: k-grid: Number of k-points =   172
siesta: k-grid: Cutoff (effective) =    15.029 Ang
siesta: k-grid: Supercell and displacements
siesta: k-grid:   -7   0   7      0.000
siesta: k-grid:    0  -7   7      0.000
siesta: k-grid:    0   0   7      0.000

superc: Internal auxiliary supercell:     5 x     5 x     5  =     125
superc: Number of atoms, orbitals, and projectors:   1250   4250  10000

outcell: Unit cell vectors (Ang):
        4.878140   -0.170740   -0.111769
        3.125531    3.749194   -0.111769
        3.125531    1.397430    3.480824

outcell: Cell vector modules (Ang)   :    4.882406    4.882406    4.882406
outcell: Cell angles (23,13,12) (deg):     52.1735     52.1735     52.1735
outcell: Cell volume (Ang**3)        :     67.1618
<dSpData1D:S at geom step 4
  <sparsity:sparsity for geom step 4
    nrows_g=34 nrows=6 sparsity=3.1557 nnzs=3648, refcount: 7>
  <dData1D:(new from dSpData1D) n=3648, refcount: 1>
refcount: 1>
new_DM -- step:     5
Re-using DM from previous geometries...
Number of DMs in history: 1
 DM extrapolation coefficients: 
1   1.00000
New DM after history re-use:
<dSpData2D:SpM extrapolated using coords
  <sparsity:sparsity for geom step 4
    nrows_g=34 nrows=6 sparsity=3.1557 nnzs=3648, refcount: 9>
  <dData2D:(temp array for extrapolation) n=3648 m=1, refcount: 1>
refcount: 1>
Note: For starting DM, Qtot, Tr[D*S] =         48.00000000         48.35965159
No. of atoms with KB's overlaping orbs in proc 0. Max # of overlaps:     117     117
New grid distribution:   1
           1       1:   15    1:    8    1:    4
           2       1:   15    1:    8    5:    8
           3       1:   15    1:    8    9:   12
           4       1:   15    1:    8   13:   15
           5       1:   15    9:   15    1:    4
           6       1:   15    9:   15    5:    8
           7       1:   15    9:   15    9:   12
           8       1:   15    9:   15   13:   15

InitMesh: MESH =    30 x    30 x    30 =       27000
InitMesh: (bp) =    15 x    15 x    15 =        3375
InitMesh: Mesh cutoff (required, used) =   100.000   140.594 Ry
ExtMesh (bp) on 0 =    75 x    68 x    64 =      326400
New grid distribution:   2
           1       9:   15    8:   15    1:    8
           2       1:    7    1:    7    1:    8
           3       1:    8    1:    8    9:   15
           4       9:   15    1:    8    9:   15
           5       1:    8    8:   15    1:    8
           6       8:   15    1:    7    1:    8
           7       1:    8    9:   15    9:   15
           8       9:   15    9:   15    9:   15
New grid distribution:   3
           1       1:    8    1:    8    1:    8
           2       9:   15    9:   15    1:    8
           3       1:    8    1:    8    9:   15
           4       9:   15    1:    8    9:   15
           5       1:    8    9:   15    1:    8
           6       9:   15    1:    8    1:    8
           7       1:    8    9:   15    9:   15
           8       9:   15    9:   15    9:   15
Setting up quadratic distribution...
ExtMesh (bp) on 0 =    67 x    68 x    68 =      309808
PhiOnMesh: Number of (b)points on node 0 =                  448
PhiOnMesh: nlist on node 0 =                13048

        iscf     Eharris(eV)        E_KS(eV)     FreeEng(eV)     dDmax    Ef(eV) dHmax(eV)
   scf:    1    -2962.817822    -2957.665201    -2957.665201  0.046030 -3.454216  0.358827
   scf:    2    -2957.616266    -2957.659034    -2957.659034  0.032921 -3.701541  0.262249
   scf:    3    -2957.691046    -2957.678145    -2957.678145  0.013643 -3.617375  0.161137
   scf:    4    -2957.681495    -2957.680365    -2957.680365  0.006477 -3.649659  0.002978
   scf:    5    -2957.680368    -2957.680367    -2957.680367  0.000117 -3.649728  0.001999
   scf:    6    -2957.680368    -2957.680367    -2957.680367  0.000012 -3.649779  0.001739
   scf:    7    -2957.680368    -2957.680368    -2957.680368  0.000016 -3.649765  0.001507
   scf:    8    -2957.680368    -2957.680368    -2957.680368  0.000015 -3.649792  0.001315
   scf:    9    -2957.680368    -2957.680368    -2957.680368  0.000009 -3.649820  0.001130
   scf:   10    -2957.680368    -2957.680368    -2957.680368  0.000007 -3.649846  0.000978

SCF Convergence by DM+H criterion
max |DM_out - DM_in|         :     0.0000070753
max |H_out - H_in|      (eV) :     0.0009780980
SCF cycle converged after 10 iterations

Using DM_out to compute the final energy and forces
No. of atoms with KB's overlaping orbs in proc 0. Max # of overlaps:     117     117

siesta: E_KS(eV) =            -2957.6804

siesta: Atomic forces (eV/Ang):
     1   -0.000000   -0.000000    0.000000
     2    0.000000    0.000000   -0.000000
     3    0.000000   -0.000001    0.000001
     4   -0.000001    0.000002   -0.000002
     5    0.391028   -0.874587    0.000001
     6    0.000000    0.524710   -0.801553
     7   -0.391030    0.349879    0.801552
     8   -0.391028    0.874585    0.000000
     9   -0.000001   -0.524710    0.801553
    10    0.391030   -0.349880   -0.801552
----------------------------------------
   Tot   -0.000000   -0.000001    0.000000
----------------------------------------
   Max    0.874587
   Res    0.428440    sqrt( Sum f_i^2 / 3N )
----------------------------------------
   Max    0.874587    constrained

Stress tensor Voigt[x,y,z,yz,xz,xy] (kbar):     -592.94     -715.06     -732.49       19.97       44.67       68.24
(Free)E + p*V (eV/cell)    -2929.1689
Target enthalpy (eV/cell)    -2915.7617

siesta: Stress tensor (static) (eV/Ang**3):
        -0.370081    0.042591    0.027881
         0.042591   -0.446298    0.012465
         0.027881    0.012466   -0.457181

siesta: Pressure (static):        680.16303484  kBar

siesta: Stress tensor (total) (eV/Ang**3):
        -0.370081    0.042591    0.027881
         0.042591   -0.446298    0.012465
         0.027881    0.012466   -0.457181

siesta: Pressure (total):        680.16303484  kBar

                     ====================================
                        Begin Broyden opt. move =      5
                     ====================================

outcoor: Atomic coordinates (fractional):                   
    0.00000000   -0.00000000   -0.00000000   1       1  Mg
    0.50000000    0.50000000    0.50000000   1       2  Mg
    0.25000000    0.25000000    0.25000000   2       3  C
   -0.25000000   -0.25000001   -0.25000000   2       4  C
    0.55701394   -0.05701394    0.25000000   3       5  O
    0.24999999    0.55701393   -0.05701395   3       6  O
   -0.05701394    0.25000001    0.55701395   3       7  O
   -0.55701394    0.05701394   -0.25000000   3       8  O
   -0.24999999   -0.55701393    0.05701395   3       9  O
    0.05701394   -0.25000001   -0.55701395   3      10  O
 Kpoints in:          196 . Kpoints trimmed:          172

siesta: k-grid: Number of k-points =   172
siesta: k-grid: Cutoff (effective) =    15.176 Ang
siesta: k-grid: Supercell and displacements
siesta: k-grid:   -7   0   7      0.000
siesta: k-grid:    0  -7   7      0.000
siesta: k-grid:    0   0   7      0.000

superc: Internal auxiliary supercell:     5 x     5 x     5  =     125
superc: Number of atoms, orbitals, and projectors:   1250   4250  10000

outcell: Unit cell vectors (Ang):
        4.911277   -0.178936   -0.117134
        3.141518    3.779355   -0.117134
        3.141518    1.404578    3.510613

outcell: Cell vector modules (Ang)   :    4.915931    4.915931    4.915931
outcell: Cell angles (23,13,12) (deg):     52.3362     52.3362     52.3362
outcell: Cell volume (Ang**3)        :     68.8833
<dSpData1D:S at geom step 5
  <sparsity:sparsity for geom step 5
    nrows_g=34 nrows=6 sparsity=2.6955 nnzs=3116, refcount: 7>
  <dData1D:(new from dSpData1D) n=3116, refcount: 1>
refcount: 1>
new_DM -- step:     6
Re-using DM from previous geometries...
Number of DMs in history: 1
 DM extrapolation coefficients: 
1   1.00000
New DM after history re-use:
<dSpData2D:SpM extrapolated using coords
  <sparsity:sparsity for geom step 5
    nrows_g=34 nrows=6 sparsity=2.6955 nnzs=3116, refcount: 9>
  <dData2D:(temp array for extrapolation) n=3116 m=1, refcount: 1>
refcount: 1>
No. of atoms with KB's overlaping orbs in proc 0. Max # of overlaps:     113     111
New grid distribution:   1
           1       1:   15    1:    8    1:    4
           2       1:   15    1:    8    5:    8
           3       1:   15    1:    8    9:   12
           4       1:   15    1:    8   13:   15
           5       1:   15    9:   15    1:    4
           6       1:   15    9:   15    5:    8
           7       1:   15    9:   15    9:   12
           8       1:   15    9:   15   13:   15

InitMesh: MESH =    30 x    30 x    30 =       27000
InitMesh: (bp) =    15 x    15 x    15 =        3375
InitMesh: Mesh cutoff (required, used) =   100.000   138.963 Ry
ExtMesh (bp) on 0 =    75 x    68 x    64 =      326400
New grid distribution:   2
           1       8:   15    1:    7    1:    7
           2       1:    7    1:    7    1:    7
           3       1:    8    1:    8    8:   15
           4       9:   15    1:    8    8:   15
           5       8:   15    8:   15    1:    7
           6       1:    7    8:   15    1:    7
           7       1:    8    9:   15    8:   15
           8       9:   15    9:   15    8:   15
New grid distribution:   3
           1       1:    8    1:    8    1:    8
           2       9:   15    9:   15    1:    8
           3       1:    8    1:    8    9:   15
           4       9:   15    1:    8    9:   15
           5       1:    8    9:   15    1:    8
           6       9:   15    1:    8    1:    8
           7       1:    8    9:   15    9:   15
           8       9:   15    9:   15    9:   15
Setting up quadratic distribution...
ExtMesh (bp) on 0 =    68 x    67 x    67 =      305252
PhiOnMesh: Number of (b)points on node 0 =                  392
PhiOnMesh: nlist on node 0 =                11158

        iscf     Eharris(eV)        E_KS(eV)     FreeEng(eV)     dDmax    Ef(eV) dHmax(eV)
   scf:    1    -2959.251143    -2958.331592    -2958.331592  0.010857 -3.907715  0.074071
   scf:    2    -2958.320485    -2958.329429    -2958.329429  0.014539 -3.951875  0.126486
   scf:    3    -2958.335289    -2958.333462    -2958.333462  0.008310 -3.928094  0.021863
   scf:    4    -2958.333506    -2958.333486    -2958.333486  0.000585 -3.933639  0.008234
   scf:    5    -2958.333492    -2958.333489    -2958.333489  0.000353 -3.936989  0.000229

SCF Convergence by DM+H criterion
max |DM_out - DM_in|         :     0.0003529926
max |H_out - H_in|      (eV) :     0.0002290780
SCF cycle converged after 5 iterations

Using DM_out to compute the final energy and forces
No. of atoms with KB's overlaping orbs in proc 0. Max # of overlaps:     113     111

siesta: E_KS(eV) =            -2958.3335

siesta: Atomic forces (eV/Ang):
     1    0.000000   -0.000000   -0.000000
     2   -0.000000    0.000000    0.000000
     3    0.000001   -0.000001    0.000002
     4   -0.000000    0.000001   -0.000000
     5    0.455935   -1.019758    0.000000
     6    0.000000    0.611807   -0.934602
     7   -0.455937    0.407956    0.934602
     8   -0.455935    1.019759   -0.000000
     9   -0.000001   -0.611806    0.934602
    10    0.455937   -0.407956   -0.934603
----------------------------------------
   Tot   -0.000001    0.000001    0.000001
----------------------------------------
   Max    1.019759
   Res    0.499557    sqrt( Sum f_i^2 / 3N )
----------------------------------------
   Max    1.019759    constrained

Stress tensor Voigt[x,y,z,yz,xz,xy] (kbar):     -497.23     -613.95     -630.62       19.09       42.70       65.23
(Free)E + p*V (eV/cell)    -2933.3717
Target enthalpy (eV/cell)    -2915.3404

siesta: Stress tensor (static) (eV/Ang**3):
        -0.310343    0.040711    0.026650
         0.040711   -0.383196    0.011915
         0.026650    0.011915   -0.393598

siesta: Pressure (static):        580.60096500  kBar

siesta: Stress tensor (total) (eV/Ang**3):
        -0.310343    0.040711    0.026650
         0.040711   -0.383196    0.011915
         0.026650    0.011915   -0.393598

siesta: Pressure (total):        580.60096500  kBar

                     ====================================
                        Begin Broyden opt. move =      6
                     ====================================

outcoor: Atomic coordinates (fractional):                   
    0.00000000   -0.00000000   -0.00000000   1       1  Mg
    0.50000000    0.50000000    0.50000000   1       2  Mg
    0.25000000    0.25000000    0.25000001   2       3  C
   -0.25000000   -0.25000000   -0.25000000   2       4  C
    0.55274555   -0.05274555    0.25000000   3       5  O
    0.24999997    0.55274553   -0.05274556   3       6  O
   -0.05274555    0.25000002    0.55274556   3       7  O
   -0.55274555    0.05274556   -0.25000000   3       8  O
   -0.24999998   -0.55274553    0.05274556   3       9  O
    0.05274555   -0.25000003   -0.55274556   3      10  O
 Kpoints in:          196 . Kpoints trimmed:          172

siesta: k-grid: Number of k-points =   172
siesta: k-grid: Cutoff (effective) =    15.485 Ang
siesta: k-grid: Supercell and displacements
siesta: k-grid:    7   0  -7      0.000
siesta: k-grid:    0  -7   7      0.000
siesta: k-grid:    7   0   0      0.000

superc: Internal auxiliary supercell:     5 x     5 x     5  =     125
superc: Number of atoms, orbitals, and projectors:   1250   4250  10000

outcell: Unit cell vectors (Ang):
        4.951966   -0.209087   -0.136872
        3.146181    3.829783   -0.136872
        3.146181    1.406663    3.564726

outcell: Cell vector modules (Ang)   :    4.958268    4.958268    4.958268
outcell: Cell angles (23,13,12) (deg):     52.9928     52.9928     52.9928
outcell: Cell volume (Ang**3)        :     72.0367
<dSpData1D:S at geom step 6
  <sparsity:sparsity for geom step 6
    nrows_g=34 nrows=6 sparsity=2.6955 nnzs=3116, refcount: 7>
  <dData1D:(new from dSpData1D) n=3116, refcount: 1>
refcount: 1>
new_DM -- step:     7
Re-using DM from previous geometries...
Number of DMs in history: 1
 DM extrapolation coefficients: 
1   1.00000
New DM after history re-use:
<dSpData2D:SpM extrapolated using coords
  <sparsity:sparsity for geom step 6
    nrows_g=34 nrows=6 sparsity=2.6955 nnzs=3116, refcount: 9>
  <dData2D:(temp array for extrapolation) n=3116 m=1, refcount: 1>
refcount: 1>
No. of atoms with KB's overlaping orbs in proc 0. Max # of overlaps:     113     111
New grid distribution:   1
           1       1:   15    1:    8    1:    4
           2       1:   15    1:    8    5:    8
           3       1:   15    1:    8    9:   12
           4       1:   15    1:    8   13:   15
           5       1:   15    9:   15    1:    4
           6       1:   15    9:   15    5:    8
           7       1:   15    9:   15    9:   12
           8       1:   15    9:   15   13:   15

InitMesh: MESH =    30 x    30 x    30 =       27000
InitMesh: (bp) =    15 x    15 x    15 =        3375
InitMesh: Mesh cutoff (required, used) =   100.000   137.729 Ry
ExtMesh (bp) on 0 =    75 x    68 x    64 =      326400
New grid distribution:   2
           1       1:    7    8:   15    1:    8
           2       1:    7    1:    7    1:    8
           3       8:   15    1:    8    9:   15
           4       1:    7    1:    8    9:   15
           5       8:   15    8:   15    1:    8
           6       8:   15    1:    7    1:    8
           7       1:    8    9:   15    9:   15
           8       9:   15    9:   15    9:   15
New grid distribution:   3
           1       1:    8    1:    8    1:    8
           2       9:   15    9:   15    1:    8
           3       1:    8    1:    8    9:   15
           4       9:   15    1:    8    9:   15
           5       1:    8    9:   15    1:    8
           6       9:   15    1:    8    1:    8
           7       1:    8    9:   15    9:   15
           8       9:   15    9:   15    9:   15
Setting up quadratic distribution...
ExtMesh (bp) on 0 =    67 x    68 x    68 =      309808
PhiOnMesh: Number of (b)points on node 0 =                  448
PhiOnMesh: nlist on node 0 =                12128

        iscf     Eharris(eV)        E_KS(eV)     FreeEng(eV)     dDmax    Ef(eV) dHmax(eV)
   scf:    1    -2960.621526    -2959.223849    -2959.223849  0.019389 -3.055553  0.122504
   scf:    2    -2959.199092    -2959.219008    -2959.219008  0.021348 -3.129996  0.187254
   scf:    3    -2959.232137    -2959.227929    -2959.227929  0.012035 -3.091585  0.042453
   scf:    4    -2959.228096    -2959.228024    -2959.228024  0.001423 -3.108871  0.006372
   scf:    5    -2959.228028    -2959.228026    -2959.228026  0.000245 -3.111869  0.000332

SCF Convergence by DM+H criterion
max |DM_out - DM_in|         :     0.0002451622
max |H_out - H_in|      (eV) :     0.0003320026
SCF cycle converged after 5 iterations

Using DM_out to compute the final energy and forces
No. of atoms with KB's overlaping orbs in proc 0. Max # of overlaps:     113     111

siesta: E_KS(eV) =            -2959.2280

siesta: Atomic forces (eV/Ang):
     1   -0.000000    0.000000   -0.000000
     2    0.000000    0.000001   -0.000000
     3   -0.000001   -0.000001   -0.000001
     4   -0.000002    0.000003   -0.000001
     5    0.491525   -1.099358    0.000001
     6    0.000000    0.659563   -1.007553
     7   -0.491525    0.439799    1.007556
     8   -0.491524    1.099356    0.000000
     9   -0.000001   -0.659562    1.007555
    10    0.491525   -0.439799   -1.007555
----------------------------------------
   Tot   -0.000002    0.000002    0.000000
----------------------------------------
   Max    1.099358
   Res    0.538551    sqrt( Sum f_i^2 / 3N )
----------------------------------------
   Max    1.099358    constrained

Stress tensor Voigt[x,y,z,yz,xz,xy] (kbar):     -351.89     -417.69     -427.08       10.76       24.07       36.77
(Free)E + p*V (eV/cell)    -2941.2934
Target enthalpy (eV/cell)    -2914.2667

siesta: Stress tensor (static) (eV/Ang**3):
        -0.219632    0.022948    0.015022
         0.022948   -0.260699    0.006716
         0.015022    0.006716   -0.266562

siesta: Pressure (static):        398.88945730  kBar

siesta: Stress tensor (total) (eV/Ang**3):
        -0.219632    0.022948    0.015022
         0.022948   -0.260699    0.006716
         0.015022    0.006716   -0.266562

siesta: Pressure (total):        398.88945730  kBar

                     ====================================
                        Begin Broyden opt. move =      7
                     ====================================

outcoor: Atomic coordinates (fractional):                   
    0.00000000   -0.00000000   -0.00000000   1       1  Mg
    0.50000000    0.50000000    0.50000000   1       2  Mg
    0.25000000    0.25000000    0.25000000   2       3  C
   -0.25000000   -0.25000000   -0.25000000   2       4  C
    0.55469372   -0.05469372    0.25000000   3       5  O
    0.24999997    0.55469370   -0.05469373   3       6  O
   -0.05469372    0.25000002    0.55469373   3       7  O
   -0.55469372    0.05469372   -0.25000000   3       8  O
   -0.24999998   -0.55469370    0.05469373   3       9  O
    0.05469371   -0.25000002   -0.55469373   3      10  O
 Kpoints in:          196 . Kpoints trimmed:          172

siesta: k-grid: Number of k-points =   172
siesta: k-grid: Cutoff (effective) =    15.242 Ang
siesta: k-grid: Supercell and displacements
siesta: k-grid:    7   0  -7      0.000
siesta: k-grid:    0   7  -7      0.000
siesta: k-grid:    7   0   0      0.000

superc: Internal auxiliary supercell:     5 x     5 x     5  =     125
superc: Number of atoms, orbitals, and projectors:   1250   4250  10000

outcell: Unit cell vectors (Ang):
        4.863915   -0.210427   -0.137749
        3.086469    3.765057   -0.137749
        3.086469    1.379965    3.505756

outcell: Cell vector modules (Ang)   :    4.870413    4.870413    4.870413
outcell: Cell angles (23,13,12) (deg):     53.1106     53.1106     53.1106
outcell: Cell volume (Ang**3)        :     68.5056
<dSpData1D:S at geom step 7
  <sparsity:sparsity for geom step 7
    nrows_g=34 nrows=6 sparsity=3.0865 nnzs=3568, refcount: 7>
  <dData1D:(new from dSpData1D) n=3568, refcount: 1>
refcount: 1>
new_DM -- step:     8
Re-using DM from previous geometries...
Number of DMs in history: 1
 DM extrapolation coefficients: 
1   1.00000
New DM after history re-use:
<dSpData2D:SpM extrapolated using coords
  <sparsity:sparsity for geom step 7
    nrows_g=34 nrows=6 sparsity=3.0865 nnzs=3568, refcount: 9>
  <dData2D:(temp array for extrapolation) n=3568 m=1, refcount: 1>
refcount: 1>
No. of atoms with KB's overlaping orbs in proc 0. Max # of overlaps:     117     117
New grid distribution:   1
           1       1:   15    1:    8    1:    4
           2       1:   15    1:    8    5:    8
           3       1:   15    1:    8    9:   12
           4       1:   15    1:    8   13:   15
           5       1:   15    9:   15    1:    4
           6       1:   15    9:   15    5:    8
           7       1:   15    9:   15    9:   12
           8       1:   15    9:   15   13:   15

InitMesh: MESH =    30 x    30 x    30 =       27000
InitMesh: (bp) =    15 x    15 x    15 =        3375
InitMesh: Mesh cutoff (required, used) =   100.000   142.956 Ry
ExtMesh (bp) on 0 =    75 x    68 x    64 =      326400
New grid distribution:   2
           1       9:   15    8:   15    1:    8
           2       1:    7    1:    7    1:    8
           3       1:    8    1:    8    9:   15
           4       9:   15    1:    8    9:   15
           5       1:    8    8:   15    1:    8
           6       8:   15    1:    7    1:    8
           7       1:    8    9:   15    9:   15
           8       9:   15    9:   15    9:   15
New grid distribution:   3
           1       1:    8    1:    8    1:    8
           2       9:   15    9:   15    1:    8
           3       1:    8    1:    8    9:   15
           4       9:   15    1:    8    9:   15
           5       1:    8    9:   15    1:    8
           6       9:   15    1:    8    1:    8
           7       1:    8    9:   15    9:   15
           8       9:   15    9:   15    9:   15
Setting up quadratic distribution...
ExtMesh (bp) on 0 =    67 x    68 x    68 =      309808
PhiOnMesh: Number of (b)points on node 0 =                  448
PhiOnMesh: nlist on node 0 =                12810

        iscf     Eharris(eV)        E_KS(eV)     FreeEng(eV)     dDmax    Ef(eV) dHmax(eV)
   scf:    1    -2956.247851    -2958.202831    -2958.202831  0.027069 -2.644199  0.154310
   scf:    2    -2958.142908    -2958.190992    -2958.190992  0.034279 -3.894234  0.295159
   scf:    3    -2958.222524    -2958.212983    -2958.212983  0.019861 -3.942953  0.037459
   scf:    4    -2958.213140    -2958.213067    -2958.213067  0.001384 -3.930531  0.009048
   scf:    5    -2958.213076    -2958.213073    -2958.213073  0.000414 -3.926776  0.000211

SCF Convergence by DM+H criterion
max |DM_out - DM_in|         :     0.0004136360
max |H_out - H_in|      (eV) :     0.0002114499
SCF cycle converged after 5 iterations

Using DM_out to compute the final energy and forces
No. of atoms with KB's overlaping orbs in proc 0. Max # of overlaps:     117     117

siesta: E_KS(eV) =            -2958.2131

siesta: Atomic forces (eV/Ang):
     1    0.000000    0.000000    0.000000
     2    0.000000    0.000000   -0.000000
     3    0.000000   -0.000001    0.000001
     4    0.000000    0.000000   -0.000001
     5    0.573436   -1.282565    0.000000
     6    0.000000    0.769478   -1.175463
     7   -0.573438    0.513091    1.175463
     8   -0.573437    1.282565   -0.000000
     9   -0.000001   -0.769478    1.175462
    10    0.573438   -0.513091   -1.175462
----------------------------------------
   Tot   -0.000001    0.000000   -0.000000
----------------------------------------
   Max    1.282565
   Res    0.628300    sqrt( Sum f_i^2 / 3N )
----------------------------------------
   Max    1.282565    constrained

Stress tensor Voigt[x,y,z,yz,xz,xy] (kbar):     -525.63     -631.21     -646.29       17.27       38.62       59.00
(Free)E + p*V (eV/cell)    -2932.5141
Target enthalpy (eV/cell)    -2915.4557

siesta: Stress tensor (static) (eV/Ang**3):
        -0.328068    0.036824    0.024106
         0.036825   -0.393967    0.010778
         0.024106    0.010778   -0.403376

siesta: Pressure (static):        601.04237785  kBar

siesta: Stress tensor (total) (eV/Ang**3):
        -0.328068    0.036824    0.024106
         0.036825   -0.393967    0.010778
         0.024106    0.010778   -0.403376

siesta: Pressure (total):        601.04237785  kBar

                     ====================================
                        Begin Broyden opt. move =      8
                     ====================================

outcoor: Atomic coordinates (fractional):                   
    0.00000000    0.00000000   -0.00000000   1       1  Mg
    0.50000000    0.50000000    0.50000000   1       2  Mg
    0.25000000    0.25000000    0.25000000   2       3  C
   -0.25000000   -0.24999999   -0.25000000   2       4  C
    0.55619946   -0.05619947    0.25000000   3       5  O
    0.24999997    0.55619945   -0.05619948   3       6  O
   -0.05619947    0.25000003    0.55619949   3       7  O
   -0.55619947    0.05619947   -0.24999999   3       8  O
   -0.24999998   -0.55619945    0.05619949   3       9  O
    0.05619947   -0.25000003   -0.55619948   3      10  O
 Kpoints in:          196 . Kpoints trimmed:          172

siesta: k-grid: Number of k-points =   172
siesta: k-grid: Cutoff (effective) =    15.154 Ang
siesta: k-grid: Supercell and displacements
siesta: k-grid:    7   0  -7      0.000
siesta: k-grid:    0   7  -7      0.000
siesta: k-grid:    7   0   0      0.000

superc: Internal auxiliary supercell:     5 x     5 x     5  =     125
superc: Number of atoms, orbitals, and projectors:   1250   4250  10000

outcell: Unit cell vectors (Ang):
        4.741175   -0.251550   -0.164668
        2.973979    3.701009   -0.164668
        2.973979    1.329671    3.457825

outcell: Cell vector modules (Ang)   :    4.750698    4.750698    4.750698
outcell: Cell angles (23,13,12) (deg):     54.2179     54.2179     54.2179
outcell: Cell volume (Ang**3)        :     65.5843
<dSpData1D:S at geom step 8
  <sparsity:sparsity for geom step 8
    nrows_g=34 nrows=6 sparsity=3.1557 nnzs=3648, refcount: 7>
  <dData1D:(new from dSpData1D) n=3648, refcount: 1>
refcount: 1>
new_DM -- step:     9
Re-using DM from previous geometries...
Number of DMs in history: 1
 DM extrapolation coefficients: 
1   1.00000
New DM after history re-use:
<dSpData2D:SpM extrapolated using coords
  <sparsity:sparsity for geom step 8
    nrows_g=34 nrows=6 sparsity=3.1557 nnzs=3648, refcount: 9>
  <dData2D:(temp array for extrapolation) n=3648 m=1, refcount: 1>
refcount: 1>
Note: For starting DM, Qtot, Tr[D*S] =         48.00000000         47.94119609
No. of atoms with KB's overlaping orbs in proc 0. Max # of overlaps:     121     117
New grid distribution:   1
           1       1:   15    1:    8    1:    4
           2       1:   15    1:    8    5:    8
           3       1:   15    1:    8    9:   12
           4       1:   15    1:    8   13:   15
           5       1:   15    9:   15    1:    4
           6       1:   15    9:   15    5:    8
           7       1:   15    9:   15    9:   12
           8       1:   15    9:   15   13:   15

InitMesh: MESH =    30 x    30 x    30 =       27000
InitMesh: (bp) =    15 x    15 x    15 =        3375
InitMesh: Mesh cutoff (required, used) =   100.000   152.408 Ry
ExtMesh (bp) on 0 =    75 x    68 x    64 =      326400
New grid distribution:   2
           1       9:   15    8:   15    1:    8
           2       1:    7    1:    7    1:    8
           3       1:    8    1:    8    9:   15
           4       9:   15    1:    8    9:   15
           5       1:    8    8:   15    1:    8
           6       8:   15    1:    7    1:    8
           7       1:    8    9:   15    9:   15
           8       9:   15    9:   15    9:   15
New grid distribution:   3
           1       1:    8    1:    8    1:    8
           2       9:   15    9:   15    1:    8
           3       1:    8    1:    8    9:   15
           4       9:   15    1:    8    9:   15
           5       1:    8    9:   15    1:    8
           6       9:   15    1:    8    1:    8
           7       1:    8    9:   15    9:   15
           8       9:   15    9:   15    9:   15
Setting up quadratic distribution...
ExtMesh (bp) on 0 =    67 x    68 x    68 =      309808
PhiOnMesh: Number of (b)points on node 0 =                  448
PhiOnMesh: nlist on node 0 =                13271

        iscf     Eharris(eV)        E_KS(eV)     FreeEng(eV)     dDmax    Ef(eV) dHmax(eV)
   scf:    1    -2955.778271    -2957.112301    -2957.112301  0.014797 -4.757327  0.086201
   scf:    2    -2957.110236    -2957.112056    -2957.112056  0.007098 -4.697044  0.053408
   scf:    3    -2957.113542    -2957.112953    -2957.112953  0.002680 -4.714717  0.037016
   scf:    4    -2957.113174    -2957.113098    -2957.113098  0.001577 -4.709277  0.003222
   scf:    5    -2957.113099    -2957.113099    -2957.113099  0.000133 -4.708771  0.000546

SCF Convergence by DM+H criterion
max |DM_out - DM_in|         :     0.0001328040
max |H_out - H_in|      (eV) :     0.0005457611
SCF cycle converged after 5 iterations

Using DM_out to compute the final energy and forces
No. of atoms with KB's overlaping orbs in proc 0. Max # of overlaps:     121     117

siesta: E_KS(eV) =            -2957.1131

siesta: Atomic forces (eV/Ang):
     1   -0.000000   -0.000000    0.000000
     2   -0.000000    0.000000   -0.000000
[...]
New grid distribution:   1
           1       1:   12    1:    6    1:    3
           2       1:   12    1:    6    4:    6
           3       1:   12    1:    6    7:    9
           4       1:   12    1:    6   10:   12
           5       1:   12    7:   12    1:    3
           6       1:   12    7:   12    4:    6
           7       1:   12    7:   12    7:    9
           8       1:   12    7:   12   10:   12

InitMesh: MESH =    24 x    24 x    24 =       13824
InitMesh: (bp) =    12 x    12 x    12 =        1728
InitMesh: Mesh cutoff (required, used) =   100.000   104.743 Ry
ExtMesh (bp) on 0 =    60 x    54 x    51 =      165240
New grid distribution:   2
           1       1:    6    7:   12    7:   12
           2       7:   12    1:    6    1:    6
           3       7:   12    1:    6    7:   12
           4       7:   12    7:   12    1:    6
           5       1:    6    1:    6    7:   12
           6       1:    6    1:    6    1:    6
           7       7:   12    7:   12    7:   12
           8       1:    6    7:   12    1:    6
New grid distribution:   3
           1       1:    6    7:   12    7:   12
           2       7:   12    1:    6    1:    6
           3       7:   12    1:    6    7:   12
           4       7:   12    7:   12    1:    6
           5       1:    6    1:    6    7:   12
           6       1:    6    1:    6    1:    6
           7       7:   12    7:   12    7:   12
           8       1:    6    7:   12    1:    6
Setting up quadratic distribution...
ExtMesh (bp) on 0 =    54 x    54 x    54 =      157464
PhiOnMesh: Number of (b)points on node 0 =                  216
PhiOnMesh: nlist on node 0 =                 6952

        iscf     Eharris(eV)        E_KS(eV)     FreeEng(eV)     dDmax    Ef(eV) dHmax(eV)
   scf:    1    -2955.894351    -2955.753037    -2955.753037  0.003894 -4.088590  0.025818
   scf:    2    -2955.751981    -2955.752768    -2955.752768  0.004584 -4.094548  0.037974
   scf:    3    -2955.753354    -2955.753200    -2955.753200  0.002662 -4.091097  0.001714
   scf:    4    -2955.753200    -2955.753200    -2955.753200  0.000018 -4.091086  0.001498
   scf:    5    -2955.753201    -2955.753200    -2955.753200  0.000014 -4.091081  0.001280
   scf:    6    -2955.753201    -2955.753201    -2955.753201  0.000013 -4.091078  0.001096
   scf:    7    -2955.753201    -2955.753201    -2955.753201  0.000017 -4.091067  0.000960

SCF Convergence by DM+H criterion
max |DM_out - DM_in|         :     0.0000174691
max |H_out - H_in|      (eV) :     0.0009602936
SCF cycle converged after 7 iterations

Using DM_out to compute the final energy and forces
No. of atoms with KB's overlaping orbs in proc 0. Max # of overlaps:     121     117

siesta: E_KS(eV) =            -2955.7532

siesta: Atomic forces (eV/Ang):
     1   -0.000000    0.000000    0.000000
     2   -0.000000   -0.000000    0.000000
     3   -0.000000    0.000002   -0.000000
     4   -0.000000   -0.000000    0.000000
     5   -0.038254    0.085562    0.000000
     6    0.000002   -0.051333    0.078415
     7    0.038255   -0.034231   -0.078414
     8    0.038256   -0.085562   -0.000001
     9   -0.000000    0.051333   -0.078416
    10   -0.038255    0.034230    0.078415
----------------------------------------
   Tot    0.000001    0.000002   -0.000000
----------------------------------------
   Max    0.085562
   Res    0.041915    sqrt( Sum f_i^2 / 3N )
----------------------------------------
   Max    0.085562    constrained

Stress tensor Voigt[x,y,z,yz,xz,xy] (kbar):    -1005.26     -991.97     -990.08       -2.17       -4.86       -7.42
(Free)E + p*V (eV/cell)    -2916.7949
Target enthalpy (eV/cell)    -2916.6293

siesta: Stress tensor (static) (eV/Ang**3):
        -0.627424   -0.004633   -0.003033
        -0.004633   -0.619134   -0.001356
        -0.003033   -0.001356   -0.617950

siesta: Pressure (static):        995.76791155  kBar

siesta: Stress tensor (total) (eV/Ang**3):
        -0.627424   -0.004633   -0.003033
        -0.004633   -0.619134   -0.001356
        -0.003033   -0.001356   -0.617950

siesta: Pressure (total):        995.76791155  kBar

                     ====================================
                        Begin Broyden opt. move =     12
                     ====================================

outcoor: Atomic coordinates (fractional):                   
    0.00000000   -0.00000000    0.00000000   1       1  Mg
    0.50000000    0.50000000    0.50000000   1       2  Mg
    0.24999999    0.25000000    0.25000000   2       3  C
   -0.25000000   -0.25000000   -0.25000000   2       4  C
    0.55771218   -0.05771218    0.25000001   3       5  O
    0.24999998    0.55771220   -0.05771218   3       6  O
   -0.05771220    0.25000001    0.55771220   3       7  O
   -0.55771218    0.05771219   -0.25000000   3       8  O
   -0.25000000   -0.55771219    0.05771219   3       9  O
    0.05771219   -0.25000001   -0.55771219   3      10  O
 Kpoints in:          196 . Kpoints trimmed:          172

siesta: k-grid: Number of k-points =   172
siesta: k-grid: Cutoff (effective) =    15.057 Ang
siesta: k-grid: Supercell and displacements
siesta: k-grid:    7   0  -7      0.000
siesta: k-grid:    0   7  -7      0.000
siesta: k-grid:    0   7   0      0.000

superc: Internal auxiliary supercell:     5 x     5 x     5  =     125
superc: Number of atoms, orbitals, and projectors:   1250   4250  10000

outcell: Unit cell vectors (Ang):
        4.621296   -0.289975   -0.189822
        2.865408    3.637293   -0.189822
        2.865408    1.281129    3.409493

outcell: Cell vector modules (Ang)   :    4.634274    4.634274    4.634274
outcell: Cell angles (23,13,12) (deg):     55.3095     55.3095     55.3095
outcell: Cell volume (Ang**3)        :     62.7063
<dSpData1D:S at geom step 12
  <sparsity:sparsity for geom step 12
    nrows_g=34 nrows=6 sparsity=3.1592 nnzs=3652, refcount: 7>
  <dData1D:(new from dSpData1D) n=3652, refcount: 1>
refcount: 1>
new_DM -- step:    13
Re-using DM from previous geometries...
Number of DMs in history: 1
 DM extrapolation coefficients: 
1   1.00000
New DM after history re-use:
<dSpData2D:SpM extrapolated using coords
  <sparsity:sparsity for geom step 12
    nrows_g=34 nrows=6 sparsity=3.1592 nnzs=3652, refcount: 9>
  <dData2D:(temp array for extrapolation) n=3652 m=1, refcount: 1>
refcount: 1>
No. of atoms with KB's overlaping orbs in proc 0. Max # of overlaps:     121     117
New grid distribution:   1
           1       1:   12    1:    6    1:    3
           2       1:   12    1:    6    4:    6
           3       1:   12    1:    6    7:    9
           4       1:   12    1:    6   10:   12
           5       1:   12    7:   12    1:    3
           6       1:   12    7:   12    4:    6
           7       1:   12    7:   12    7:    9
           8       1:   12    7:   12   10:   12

InitMesh: MESH =    24 x    24 x    24 =       13824
InitMesh: (bp) =    12 x    12 x    12 =        1728
InitMesh: Mesh cutoff (required, used) =   100.000   103.996 Ry
ExtMesh (bp) on 0 =    60 x    54 x    51 =      165240
New grid distribution:   2
           1       1:    6    7:   12    7:   12
           2       7:   12    1:    6    1:    6
           3       7:   12    1:    6    7:   12
           4       7:   12    7:   12    1:    6
           5       1:    6    1:    6    7:   12
           6       1:    6    1:    6    1:    6
           7       7:   12    7:   12    7:   12
           8       1:    6    7:   12    1:    6
New grid distribution:   3
           1       1:    6    7:   12    7:   12
           2       7:   12    1:    6    1:    6
           3       7:   12    1:    6    7:   12
           4       7:   12    7:   12    1:    6
           5       1:    6    1:    6    7:   12
           6       1:    6    1:    6    1:    6
           7       7:   12    7:   12    7:   12
           8       1:    6    7:   12    1:    6
Setting up quadratic distribution...
ExtMesh (bp) on 0 =    54 x    54 x    54 =      157464
PhiOnMesh: Number of (b)points on node 0 =                  216
PhiOnMesh: nlist on node 0 =                 6954

        iscf     Eharris(eV)        E_KS(eV)     FreeEng(eV)     dDmax    Ef(eV) dHmax(eV)
   scf:    1    -2955.758378    -2955.766340    -2955.766340  0.001891 -4.086038  0.015796
   scf:    2    -2955.766078    -2955.766290    -2955.766290  0.002387 -4.084407  0.019982
   scf:    3    -2955.766428    -2955.766385    -2955.766385  0.001358 -4.085418  0.001538
   scf:    4    -2955.766385    -2955.766385    -2955.766385  0.000016 -4.085507  0.001304
   scf:    5    -2955.766385    -2955.766385    -2955.766385  0.000010 -4.085587  0.001110
   scf:    6    -2955.766385    -2955.766385    -2955.766385  0.000010 -4.085655  0.000942

SCF Convergence by DM+H criterion
max |DM_out - DM_in|         :     0.0000095019
max |H_out - H_in|      (eV) :     0.0009420906
SCF cycle converged after 6 iterations

Using DM_out to compute the final energy and forces
No. of atoms with KB's overlaping orbs in proc 0. Max # of overlaps:     121     117

siesta: E_KS(eV) =            -2955.7664

siesta: Atomic forces (eV/Ang):
     1   -0.000000    0.000000    0.000000
     2   -0.000000   -0.000000    0.000000
     3   -0.000000    0.000001    0.000000
     4    0.000000   -0.000001   -0.000001
     5    0.032278   -0.072192    0.000000
     6   -0.000000    0.043313   -0.066166
     7   -0.032278    0.028880    0.066166
     8   -0.032278    0.072193    0.000000
     9   -0.000000   -0.043312    0.066165
    10    0.032278   -0.028880   -0.066165
----------------------------------------
   Tot   -0.000001    0.000001    0.000001
----------------------------------------
   Max    0.072193
   Res    0.035366    sqrt( Sum f_i^2 / 3N )
----------------------------------------
   Max    0.072193    constrained

Stress tensor Voigt[x,y,z,yz,xz,xy] (kbar):     -991.83    -1008.61    -1011.00        2.74        6.14        9.38
(Free)E + p*V (eV/cell)    -2916.4794
Target enthalpy (eV/cell)    -2916.6286

siesta: Stress tensor (static) (eV/Ang**3):
        -0.619043    0.005853    0.003831
         0.005853   -0.629517    0.001713
         0.003831    0.001713   -0.631012

siesta: Pressure (static):       1003.81246310  kBar

siesta: Stress tensor (total) (eV/Ang**3):
        -0.619043    0.005853    0.003831
         0.005853   -0.629517    0.001713
         0.003831    0.001713   -0.631012

siesta: Pressure (total):       1003.81246310  kBar

                     ====================================
                        Begin Broyden opt. move =     13
                     ====================================

outcoor: Atomic coordinates (fractional):                   
    0.00000000    0.00000000   -0.00000000   1       1  Mg
    0.50000000    0.50000000    0.50000000   1       2  Mg
    0.24999999    0.25000000    0.25000000   2       3  C
   -0.25000000   -0.24999999   -0.25000000   2       4  C
    0.55716071   -0.05716071    0.25000001   3       5  O
    0.24999998    0.55716073   -0.05716072   3       6  O
   -0.05716074    0.25000002    0.55716073   3       7  O
   -0.55716071    0.05716072   -0.25000000   3       8  O
   -0.25000000   -0.55716072    0.05716072   3       9  O
    0.05716073   -0.25000001   -0.55716072   3      10  O
 Kpoints in:          196 . Kpoints trimmed:          172

siesta: k-grid: Number of k-points =   172
siesta: k-grid: Cutoff (effective) =    15.088 Ang
siesta: k-grid: Supercell and displacements
siesta: k-grid:    7   0  -7      0.000
siesta: k-grid:    0   7  -7      0.000
siesta: k-grid:    0   7   0      0.000

superc: Internal auxiliary supercell:     5 x     5 x     5  =     125
superc: Number of atoms, orbitals, and projectors:   1250   4250  10000

outcell: Unit cell vectors (Ang):
        4.609418   -0.300163   -0.196491
        2.849895    3.635235   -0.196491
        2.849895    1.274193    3.410275

outcell: Cell vector modules (Ang)   :    4.623358    4.623358    4.623359
outcell: Cell angles (23,13,12) (deg):     55.5760     55.5760     55.5760
outcell: Cell volume (Ang**3)        :     62.7052
<dSpData1D:S at geom step 13
  <sparsity:sparsity for geom step 13
    nrows_g=34 nrows=6 sparsity=3.1592 nnzs=3652, refcount: 7>
  <dData1D:(new from dSpData1D) n=3652, refcount: 1>
refcount: 1>
new_DM -- step:    14
Re-using DM from previous geometries...
Number of DMs in history: 1
 DM extrapolation coefficients: 
1   1.00000
New DM after history re-use:
<dSpData2D:SpM extrapolated using coords
  <sparsity:sparsity for geom step 13
    nrows_g=34 nrows=6 sparsity=3.1592 nnzs=3652, refcount: 9>
  <dData2D:(temp array for extrapolation) n=3652 m=1, refcount: 1>
refcount: 1>
No. of atoms with KB's overlaping orbs in proc 0. Max # of overlaps:     121     117
New grid distribution:   1
           1       1:   12    1:    6    1:    3
           2       1:   12    1:    6    4:    6
           3       1:   12    1:    6    7:    9
           4       1:   12    1:    6   10:   12
           5       1:   12    7:   12    1:    3
           6       1:   12    7:   12    4:    6
           7       1:   12    7:   12    7:    9
           8       1:   12    7:   12   10:   12

InitMesh: MESH =    24 x    24 x    24 =       13824
InitMesh: (bp) =    12 x    12 x    12 =        1728
InitMesh: Mesh cutoff (required, used) =   100.000   104.863 Ry
ExtMesh (bp) on 0 =    60 x    54 x    51 =      165240
New grid distribution:   2
           1       1:    6    7:   12    7:   12
           2       7:   12    1:    6    1:    6
           3       7:   12    1:    6    7:   12
           4       7:   12    7:   12    1:    6
           5       1:    6    1:    6    7:   12
           6       1:    6    1:    6    1:    6
           7       7:   12    7:   12    7:   12
           8       1:    6    7:   12    1:    6
New grid distribution:   3
           1       1:    6    7:   12    7:   12
           2       7:   12    1:    6    1:    6
           3       7:   12    1:    6    7:   12
           4       7:   12    7:   12    1:    6
           5       1:    6    1:    6    7:   12
           6       1:    6    1:    6    1:    6
           7       7:   12    7:   12    7:   12
           8       1:    6    7:   12    1:    6
Setting up quadratic distribution...
ExtMesh (bp) on 0 =    54 x    54 x    54 =      157464
PhiOnMesh: Number of (b)points on node 0 =                  216
PhiOnMesh: nlist on node 0 =                 6952

        iscf     Eharris(eV)        E_KS(eV)     FreeEng(eV)     dDmax    Ef(eV) dHmax(eV)
   scf:    1    -2955.740388    -2955.766275    -2955.766275  0.001716 -4.111337  0.005805
   scf:    2    -2955.766229    -2955.766266    -2955.766266  0.000992 -4.112560  0.008171
   scf:    3    -2955.766290    -2955.766282    -2955.766282  0.000568 -4.111858  0.000416

SCF Convergence by DM+H criterion
max |DM_out - DM_in|         :     0.0005678145
max |H_out - H_in|      (eV) :     0.0004163708
SCF cycle converged after 3 iterations

Using DM_out to compute the final energy and forces
No. of atoms with KB's overlaping orbs in proc 0. Max # of overlaps:     121     117

siesta: E_KS(eV) =            -2955.7663

siesta: Atomic forces (eV/Ang):
     1   -0.000000    0.000001    0.000000
     2    0.000000    0.000000    0.000000
     3   -0.000000    0.000001   -0.000000
     4   -0.000001   -0.000001    0.000000
     5   -0.016146    0.036112   -0.000001
     6   -0.000000   -0.021666    0.033094
     7    0.016144   -0.014447   -0.033093
     8    0.016146   -0.036111    0.000000
     9    0.000000    0.021665   -0.033094
    10   -0.016144    0.014448    0.033093
----------------------------------------
   Tot   -0.000001    0.000000   -0.000000
----------------------------------------
   Max    0.036112
   Res    0.017690    sqrt( Sum f_i^2 / 3N )
----------------------------------------
   Max    0.036112    constrained

Stress tensor Voigt[x,y,z,yz,xz,xy] (kbar):    -1000.63     -991.07     -989.70       -1.56       -3.50       -5.34
(Free)E + p*V (eV/cell)    -2916.8718
Target enthalpy (eV/cell)    -2916.6292

siesta: Stress tensor (static) (eV/Ang**3):
        -0.624539   -0.003336   -0.002184
        -0.003336   -0.618569   -0.000976
        -0.002184   -0.000976   -0.617717

siesta: Pressure (static):        993.80034160  kBar

siesta: Stress tensor (total) (eV/Ang**3):
        -0.624539   -0.003336   -0.002184
        -0.003336   -0.618569   -0.000976
        -0.002184   -0.000976   -0.617717

siesta: Pressure (total):        993.80034160  kBar

outcoor: Relaxed atomic coordinates (fractional):           
    0.00000000    0.00000000   -0.00000000   1       1  Mg
    0.50000000    0.50000000    0.50000000   1       2  Mg
    0.24999999    0.25000000    0.25000000   2       3  C
   -0.25000000   -0.24999999   -0.25000000   2       4  C
    0.55716071   -0.05716071    0.25000001   3       5  O
    0.24999998    0.55716073   -0.05716072   3       6  O
   -0.05716074    0.25000002    0.55716073   3       7  O
   -0.55716071    0.05716072   -0.25000000   3       8  O
   -0.25000000   -0.55716072    0.05716072   3       9  O
    0.05716073   -0.25000001   -0.55716072   3      10  O

outcell: Unit cell vectors (Ang):
        4.609418   -0.300163   -0.196491
        2.849895    3.635235   -0.196491
        2.849895    1.274193    3.410275

outcell: Cell vector modules (Ang)   :    4.623358    4.623358    4.623359
outcell: Cell angles (23,13,12) (deg):     55.5760     55.5760     55.5760
outcell: Cell volume (Ang**3)        :     62.7052

siesta: Program's energy decomposition (eV):
siesta: Ebs     =      -675.756077
siesta: Eions   =      5228.674091
siesta: Ena     =      1080.211346
siesta: Ekin    =      2332.826810
siesta: Enl     =      -367.182492
siesta: Eso     =         0.000000
siesta: Edftu   =         0.000000
siesta: DEna    =       -62.670378
siesta: DUscf   =         7.330032
siesta: DUext   =         0.000000
siesta: Exc     =      -717.607509
siesta: eta*DQ  =         0.000000
siesta: Emadel  =         0.000000
siesta: Emeta   =         0.000000
siesta: Emolmec =         0.000000
siesta: Ekinion =         0.000000
siesta: Eharris =     -2955.766290
siesta: Etot    =     -2955.766282
siesta: FreeEng =     -2955.766282

siesta: Final energy (eV):
siesta:  Band Struct. =    -675.756077
siesta:       Kinetic =    2332.826810
siesta:       Hartree =     713.364234
siesta:       Edftu   =       0.000000
siesta:       Eso     =       0.000000
siesta:    Ext. field =       0.000000
siesta:   Exch.-corr. =    -717.607509
siesta:  Ion-electron =   -3494.850542
siesta:       Ion-ion =   -1789.499275
siesta:       Ekinion =       0.000000
siesta:         Total =   -2955.766282
siesta:         Fermi =      -4.111858

siesta: Stress tensor (static) (eV/Ang**3):
siesta:    -0.624539   -0.003336   -0.002184
siesta:    -0.003336   -0.618569   -0.000976
siesta:    -0.002184   -0.000976   -0.617717

siesta: Constrained stress tensor (static) (eV/Ang**3):
siesta:    -0.624539   -0.003336   -0.002184
siesta:    -0.003336   -0.618569   -0.000976
siesta:    -0.002184   -0.000976   -0.617717

siesta: Cell volume =         62.705192 Ang**3

siesta: Pressure (static):
siesta:                Solid            Molecule  Units
siesta:           0.00675558          0.00677378  Ry/Bohr**3
siesta:           0.62027468          0.62194527  eV/Ang**3
siesta:         993.80034160        996.47694625  kBar
(Free)E+ p_basis*V_orbitals  =       -2954.571985
(Free)Eharris+ p_basis*V_orbitals  =       -2954.571993

cite: Please see "var_cell.bib" for an exhaustive BiBTeX file.
cite: Please clearly indicate Siesta version in published work: v4.1-b4-351
cite: This calculation has made use of the following articles
cite: which are encouraged to be cited in a published work.
        Primary SIESTA paper
          DOI: www.doi.org/10.1088/0953-8984/14/11/302

>> End of run:  22-JAN-2021  23:31:04
Job completed
