Siesta Version  : siesta-4.1-1033
Architecture    : x86_64-linux-n-62-18-18
Compiler version: GNU Fortran (GCC) 7.3.0
Compiler flags  : mpifort -m64 -fPIC -O3 -march=native -ftree-vectorize -fexpensive-optimizatioons -funroll-loops -fprefetch-loop-arrays -fno-second-underscore  -flto
PP flags        : -I/zdata/groups/common/nicpa/2018-feb/generic/build-tools/1.0/include -I/zdatta/groups/common/nicpa/2018-feb/generic/gcc/7.3.0/include -I/zdata/groups/common/nicpa/2018-feb/generic/gcc/7.3.0/include -I/zdata/groups/common/nicpa/2018-feb/XeonE5-2665/zlib/1.2.11/gnu-7.3.0/include -I/zdata/groups/common/nicpa/2018-feb/generic/numactl/2.0.11/include -I/zdata/groups/common/nicpa/2018-feb/XeonE5-2665/libxml2/2.9.7/gnu-7.3.0/include -I/zdata/groups/common/nicpa/2018-feb/XeonE5-2665/hwloc/1.11.9/gnu-7.3.0/include -I/zdata/groups/common/nicpa/2018-feb/XeonE5-2665/openmpi/3.0.0/gnu-7.3.0/include -I/zdata/groups/common/nicpa/2018-feb/XeonE5-2665/szip/2.1.1/gnu-7.3.0/include -I/zdata/groups/common/nicpa/2018-feb/XeonE5-2665/hdf5/1.8.18/gnu-7.3.0/include -I/zdata/groups/common/nicpa/2018-feb/XeonE5-2665/pnetcdf/1.8.1/gnu-7.3.0/include -I/zdata/groups/common/nicpa/2018-feb/XeonE5-2665/netcdf/4.6.0/gnu-7.3.0/include -I/zdata/groups/common/nicpa/2018-feb/XeonE5-2665/flook/0.7.0/gnu-7.3.0/include -I/zdata/groups/common/nicpa/2018-feb/XeonE5-2665/parmetis/4.0.3/gnu-7.3.0/include -I/zdata/groups/common/nicpa/2018-feb/XeonE5-2665/scalapack/204/gnu-7.3.0/include -I/zdata/groups/common/nicpa/2018-feb/XeonE5-2665/openblas/0.2.20/gnu-7.3.0/include -I/zdata/groups/common/nicpa/2018-feb/XeonE5-2665/scotch/6.0.4/gnu-7.3.0/include -I/zdata/groups/common/nicpa/2018-feb/XeonE5-2665/mumps/5.1.2/gnu-7.3.0/include -I/zdata/groups/common/nicpa/2018-feb/XeonE5-2665/fftw/3.3.7/gnu-7.3.0/include -I/zdata/groups/common/nicpa/2018-feb/XeonE5-2665/elpa/2017.05.003/gnu-7.3.0/include/elpa -DSIESTA__ELPA -DMPI -D1 -DFC_HAVE_ABORT -DCDF -DCDF4 -DSIESTA__FLOOK  -DNCDF -DNCDF_4 -DNCDF_PARALLEL -DSIESTA__METIS -DSIESTA__MUMPS -DTS_NOCHECKS -DSIESTA__MRRR
Libraries       : libncdf.a libfdict.a -lnetcdff -lnetcdf -lpnetcdf -lhdf5_hl -lhdf5 -lz  -lzmuumps -lmumps_common -lesmumps -lscotch -lscotcherr -lpord -lparmetis -lmetis -lelpa -lscalapack -lopenblas  -L/zdata/groups/common/nicpa/2018-feb/XeonE5-2665/flook/0.7.0/gnu-7.3.0/lib -Wl,-rpath=/zdata/groups/common/nicpa/2018-feb/XeonE5-2665/flook/0.7.0/gnu-7.3.0/lib -lflookall -ldl  -flto -fuse-linker-plugin  -lmetis
PARALLEL version
NetCDF support
NetCDF-4 support
NetCDF-4 MPI-IO support
METIS ordering support

* Running on 8 nodes in parallel
>> Start of run:   5-NOV-2018  11:20:23

                           ***********************       
                           *  WELCOME TO SIESTA  *       
                           ***********************       

reinit: Reading from ../zmatrix.fdf

reinit: -----------------------------------------------------------------------
reinit: System Name: zmatrix
reinit: -----------------------------------------------------------------------
reinit: System Label: zmatrix
reinit: -----------------------------------------------------------------------

initatom: Reading input for the pseudopotentials and atomic orbitals ----------
Species number:   1 Atomic number:    8 Label: O
Species number:   2 Atomic number:    1 Label: H
Species number:   3 Atomic number:   14 Label: Si

Ground state valence configuration:   2s02  2p04
Reading pseudopotential information in formatted form from O.psf

Valence configuration for pseudopotential generation:
2s( 2.00) rc: 1.14
2p( 4.00) rc: 1.14
3d( 0.00) rc: 1.14
4f( 0.00) rc: 1.14
Ground state valence configuration:   1s01
Reading pseudopotential information in formatted form from H.psf

Valence configuration for pseudopotential generation:
1s( 1.00) rc: 1.25
2p( 0.00) rc: 1.25
3d( 0.00) rc: 1.25
4f( 0.00) rc: 1.25
Ground state valence configuration:   3s02  3p02
Reading pseudopotential information in formatted form from Si.psf

Valence configuration for pseudopotential generation:
3s( 2.00) rc: 1.89
3p( 2.00) rc: 1.89
3d( 0.00) rc: 1.89
4f( 0.00) rc: 1.89
For O, standard SIESTA heuristics set lmxkb to 3
 (one more than the basis l, including polarization orbitals).
Use PS.lmax or PS.KBprojectors blocks to override.
For H, standard SIESTA heuristics set lmxkb to 2
 (one more than the basis l, including polarization orbitals).
Use PS.lmax or PS.KBprojectors blocks to override.
For Si, standard SIESTA heuristics set lmxkb to 3
 (one more than the basis l, including polarization orbitals).
Use PS.lmax or PS.KBprojectors blocks to override.

<basis_specs>
===============================================================================
O                    Z=   8    Mass=  16.000        Charge= 0.17977+309
Lmxo=1 Lmxkb= 3    BasisType=split      Semic=F
L=0  Nsemic=0  Cnfigmx=2
          n=1  nzeta=2  polorb=0
            splnorm:   0.15000    
               vcte:    0.0000    
               rinn:    0.0000    
               qcoe:    0.0000    
               qyuk:    0.0000    
               qwid:   0.10000E-01
                rcs:    0.0000      0.0000    
            lambdas:    1.0000      1.0000    
L=1  Nsemic=0  Cnfigmx=2
          n=1  nzeta=2  polorb=1
            splnorm:   0.15000    
               vcte:    0.0000    
               rinn:    0.0000    
               qcoe:    0.0000    
               qyuk:    0.0000    
               qwid:   0.10000E-01
                rcs:    0.0000      0.0000    
            lambdas:    1.0000      1.0000    
-------------------------------------------------------------------------------
L=0  Nkbl=1  erefs: 0.17977+309
L=1  Nkbl=1  erefs: 0.17977+309
L=2  Nkbl=1  erefs: 0.17977+309
L=3  Nkbl=1  erefs: 0.17977+309
===============================================================================
</basis_specs>

atom: Called for O                     (Z =   8)

read_vps: Pseudopotential generation method:
read_vps: ATM3      Troullier-Martins                       
Total valence charge:    6.00000

xc_check: Exchange-correlation functional:
xc_check: Ceperley-Alder
V l=0 = -2*Zval/r beyond r=  1.1278
V l=1 = -2*Zval/r beyond r=  1.1278
V l=2 = -2*Zval/r beyond r=  1.1278
V l=3 = -2*Zval/r beyond r=  1.1138
All V_l potentials equal beyond r=  1.1278
This should be close to max(r_c) in ps generation
All pots = -2*Zval/r beyond r=  1.1278

VLOCAL1: 99.0% of the norm of Vloc inside     34.126 Ry
VLOCAL1: 99.9% of the norm of Vloc inside     77.774 Ry
atom: Maximum radius for 4*pi*r*r*local-pseudopot. charge    1.37759
atom: Maximum radius for r*vlocal+2*Zval:    1.18566
GHOST: No ghost state for L =  0
GHOST: No ghost state for L =  1
GHOST: No ghost state for L =  2
GHOST: No ghost state for L =  3

KBgen: Kleinman-Bylander projectors: 
   l= 0   rc=  1.294105   el= -1.742414   Ekb=  9.135903   kbcos=  0.326910
   l= 1   rc=  1.294105   el= -0.676589   Ekb= -8.124878   kbcos= -0.395047
   l= 2   rc=  1.448233   el=  0.002386   Ekb= -2.039267   kbcos= -0.003484
   l= 3   rc=  1.561052   el=  0.003508   Ekb= -0.799141   kbcos= -0.000344

KBgen: Total number of  Kleinman-Bylander projectors:   16
atom: -------------------------------------------------------------------------

atom: SANKEY-TYPE ORBITALS:
atom: Selected multiple-zeta basis: split     

SPLIT: Orbitals with angular momentum L= 0

SPLIT: Basis orbitals for state 2s

SPLIT: PAO cut-off radius determined from an
SPLIT: energy shift=  0.010000 Ry

   izeta = 1
                 lambda =    1.000000
                     rc =    3.562532
                 energy =   -1.732600
                kinetic =    1.577294
    potential(screened) =   -3.309894
       potential(ionic) =  -11.240760

   izeta = 2
                 rmatch =    2.541963
              splitnorm =    0.150000
                 energy =   -1.504672
                kinetic =    2.374987
    potential(screened) =   -3.879659
       potential(ionic) =  -12.401042

SPLIT: Orbitals with angular momentum L= 1

SPLIT: Basis orbitals for state 2p

SPLIT: PAO cut-off radius determined from an
SPLIT: energy shift=  0.010000 Ry

   izeta = 1
                 lambda =    1.000000
                     rc =    4.351355
                 energy =   -0.667669
                kinetic =    4.894715
    potential(screened) =   -5.562384
       potential(ionic) =  -13.283144

   izeta = 2
                 rmatch =    2.606321
              splitnorm =    0.150000
                 energy =   -0.413426
                kinetic =    7.271280
    potential(screened) =   -7.684706
       potential(ionic) =  -16.331022

POLgen: Perturbative polarization orbital with L=  2

POLgen: Polarization orbital for state 2p

   izeta = 1
                     rc =    4.351355
                 energy =    2.201853
                kinetic =    4.360449
    potential(screened) =   -2.158596
       potential(ionic) =   -8.257377
atom: Total number of Sankey-type orbitals: 13

atm_pop: Valence configuration (for local Pseudopot. screening):
 2s( 2.00)                                                            
 2p( 4.00)                                                            
Vna: chval, zval:    6.00000   6.00000

Vna:  Cut-off radius for the neutral-atom potential:   4.351355

atom: _________________________________________________________________________

<basis_specs>
===============================================================================
H                    Z=   1    Mass=  1.0100        Charge= 0.17977+309
Lmxo=0 Lmxkb= 2    BasisType=split      Semic=F
L=0  Nsemic=0  Cnfigmx=1
          n=1  nzeta=2  polorb=1
            splnorm:   0.15000    
               vcte:    0.0000    
               rinn:    0.0000    
               qcoe:    0.0000    
               qyuk:    0.0000    
               qwid:   0.10000E-01
                rcs:    0.0000      0.0000    
            lambdas:    1.0000      1.0000    
-------------------------------------------------------------------------------
L=0  Nkbl=1  erefs: 0.17977+309
L=1  Nkbl=1  erefs: 0.17977+309
L=2  Nkbl=1  erefs: 0.17977+309
===============================================================================
</basis_specs>

atom: Called for H                     (Z =   1)

read_vps: Pseudopotential generation method:
read_vps: ATM3      Troullier-Martins                       
Total valence charge:    1.00000

xc_check: Exchange-correlation functional:
xc_check: Ceperley-Alder
V l=0 = -2*Zval/r beyond r=  1.2343
V l=1 = -2*Zval/r beyond r=  1.2189
V l=2 = -2*Zval/r beyond r=  1.2189
All V_l potentials equal beyond r=  1.2343
This should be close to max(r_c) in ps generation
All pots = -2*Zval/r beyond r=  1.2343

VLOCAL1: 99.0% of the norm of Vloc inside     28.493 Ry
VLOCAL1: 99.9% of the norm of Vloc inside     64.935 Ry
atom: Maximum radius for 4*pi*r*r*local-pseudopot. charge    1.45251
atom: Maximum radius for r*vlocal+2*Zval:    1.21892
GHOST: No ghost state for L =  0
GHOST: No ghost state for L =  1
GHOST: No ghost state for L =  2

KBgen: Kleinman-Bylander projectors: 
   l= 0   rc=  1.364359   el= -0.467325   Ekb= -2.005361   kbcos= -0.336422
   l= 1   rc=  1.434438   el=  0.001430   Ekb= -0.501708   kbcos= -0.021697
   l= 2   rc=  1.470814   el=  0.002365   Ekb= -0.190555   kbcos= -0.002281

KBgen: Total number of  Kleinman-Bylander projectors:    9
atom: -------------------------------------------------------------------------

atom: SANKEY-TYPE ORBITALS:
atom: Selected multiple-zeta basis: split     

SPLIT: Orbitals with angular momentum L= 0

SPLIT: Basis orbitals for state 1s

SPLIT: PAO cut-off radius determined from an
SPLIT: energy shift=  0.010000 Ry

   izeta = 1
                 lambda =    1.000000
                     rc =    5.336316
                 energy =   -0.457946
                kinetic =    0.886710
    potential(screened) =   -1.344656
       potential(ionic) =   -1.876618

   izeta = 2
                 rmatch =    4.002347
              splitnorm =    0.150000
                 energy =   -0.355904
                kinetic =    1.439488
    potential(screened) =   -1.795392
       potential(ionic) =   -2.364690

POLgen: Perturbative polarization orbital with L=  1

POLgen: Polarization orbital for state 1s

   izeta = 1
                     rc =    5.336316
                 energy =    0.616245
                kinetic =    1.262150
    potential(screened) =   -0.645906
       potential(ionic) =   -1.116519
atom: Total number of Sankey-type orbitals:  5

atm_pop: Valence configuration (for local Pseudopot. screening):
 1s( 1.00)                                                            
Vna: chval, zval:    1.00000   1.00000

Vna:  Cut-off radius for the neutral-atom potential:   5.336316

atom: _________________________________________________________________________

<basis_specs>
===============================================================================
Si                   Z=  14    Mass=  28.090        Charge= 0.17977+309
Lmxo=1 Lmxkb= 3    BasisType=split      Semic=F
L=0  Nsemic=0  Cnfigmx=3
          n=1  nzeta=2  polorb=0
            splnorm:   0.15000    
               vcte:    0.0000    
               rinn:    0.0000    
               qcoe:    0.0000    
               qyuk:    0.0000    
               qwid:   0.10000E-01
                rcs:    0.0000      0.0000    
            lambdas:    1.0000      1.0000    
L=1  Nsemic=0  Cnfigmx=3
          n=1  nzeta=2  polorb=1
            splnorm:   0.15000    
               vcte:    0.0000    
               rinn:    0.0000    
               qcoe:    0.0000    
               qyuk:    0.0000    
               qwid:   0.10000E-01
                rcs:    0.0000      0.0000    
            lambdas:    1.0000      1.0000    
-------------------------------------------------------------------------------
L=0  Nkbl=1  erefs: 0.17977+309
L=1  Nkbl=1  erefs: 0.17977+309
L=2  Nkbl=1  erefs: 0.17977+309
L=3  Nkbl=1  erefs: 0.17977+309
===============================================================================
</basis_specs>

atom: Called for Si                    (Z =  14)

read_vps: Pseudopotential generation method:
read_vps: ATM3      Troullier-Martins                       
Total valence charge:    4.00000

xc_check: Exchange-correlation functional:
xc_check: Ceperley-Alder
V l=0 = -2*Zval/r beyond r=  2.5494
V l=1 = -2*Zval/r beyond r=  2.5494
V l=2 = -2*Zval/r beyond r=  2.5494
V l=3 = -2*Zval/r beyond r=  2.5494
All V_l potentials equal beyond r=  1.8652
This should be close to max(r_c) in ps generation
All pots = -2*Zval/r beyond r=  2.5494
Using large-core scheme for Vlocal

atom: Estimated core radius    2.54944

atom: Including non-local core corrections could be a good idea
atom: Maximum radius for 4*pi*r*r*local-pseudopot. charge    2.85303
atom: Maximum radius for r*vlocal+2*Zval:    2.58151
GHOST: No ghost state for L =  0
GHOST: No ghost state for L =  1
GHOST: No ghost state for L =  2
GHOST: No ghost state for L =  3

KBgen: Kleinman-Bylander projectors: 
   l= 0   rc=  1.936440   el= -0.796617   Ekb=  4.661340   kbcos=  0.299756
   l= 1   rc=  1.936440   el= -0.307040   Ekb=  1.494238   kbcos=  0.301471
   l= 2   rc=  1.936440   el=  0.002313   Ekb= -2.808672   kbcos= -0.054903
   l= 3   rc=  1.936440   el=  0.003402   Ekb= -0.959059   kbcos= -0.005513

KBgen: Total number of  Kleinman-Bylander projectors:   16
atom: -------------------------------------------------------------------------

atom: SANKEY-TYPE ORBITALS:
atom: Selected multiple-zeta basis: split     

SPLIT: Orbitals with angular momentum L= 0

SPLIT: Basis orbitals for state 3s

SPLIT: PAO cut-off radius determined from an
SPLIT: energy shift=  0.010000 Ry

   izeta = 1
                 lambda =    1.000000
                     rc =    5.397360
                 energy =   -0.786473
                kinetic =    0.546491
    potential(screened) =   -1.332964
       potential(ionic) =   -3.793893

   izeta = 2
                 rmatch =    4.474538
              splitnorm =    0.150000
                 energy =   -0.690041
                kinetic =    0.854339
    potential(screened) =   -1.544380
       potential(ionic) =   -4.120474

SPLIT: Orbitals with angular momentum L= 1

SPLIT: Basis orbitals for state 3p

SPLIT: PAO cut-off radius determined from an
SPLIT: energy shift=  0.010000 Ry

   izeta = 1
                 lambda =    1.000000
                     rc =    6.930397
                 energy =   -0.298036
                kinetic =    0.832892
    potential(screened) =   -1.130928
       potential(ionic) =   -3.361641

   izeta = 2
                 rmatch =    5.198700
              splitnorm =    0.150000
                 energy =   -0.218749
                kinetic =    1.203229
    potential(screened) =   -1.421978
       potential(ionic) =   -3.849753

POLgen: Perturbative polarization orbital with L=  2

POLgen: Polarization orbital for state 3p

   izeta = 1
                     rc =    6.930397
                 energy =    0.377307
                kinetic =    1.185358
    potential(screened) =   -0.808051
       potential(ionic) =   -2.819307
atom: Total number of Sankey-type orbitals: 13

atm_pop: Valence configuration (for local Pseudopot. screening):
 3s( 2.00)                                                            
 3p( 2.00)                                                            
Vna: chval, zval:    4.00000   4.00000

Vna:  Cut-off radius for the neutral-atom potential:   6.930397

atom: _________________________________________________________________________

prinput: Basis input ----------------------------------------------------------

PAO.BasisType split     

%block ChemicalSpeciesLabel
    1    8 O                       # Species index, atomic number, species label
    2    1 H                       # Species index, atomic number, species label
    3   14 Si                      # Species index, atomic number, species label
%endblock ChemicalSpeciesLabel

%block PAO.Basis                 # Define Basis set
O                     2                    # Species label, number of l-shells
 n=2   0   2                         # n, l, Nzeta 
   3.563      2.542   
   1.000      1.000   
 n=2   1   2 P   1                   # n, l, Nzeta, Polarization, NzetaPol
   4.351      2.606   
   1.000      1.000   
H                     1                    # Species label, number of l-shells
 n=1   0   2 P   1                   # n, l, Nzeta, Polarization, NzetaPol
   5.336      4.002   
   1.000      1.000   
Si                    2                    # Species label, number of l-shells
 n=3   0   2                         # n, l, Nzeta 
   5.397      4.475   
   1.000      1.000   
 n=3   1   2 P   1                   # n, l, Nzeta, Polarization, NzetaPol
   6.930      5.199   
   1.000      1.000   
%endblock PAO.Basis

prinput: ----------------------------------------------------------------------

Dumping basis to NetCDF file O.ion.nc
Dumping basis to NetCDF file H.ion.nc
Dumping basis to NetCDF file Si.ion.nc
coor:   Atomic-coordinates input format  =     Cartesian coordinates
coor:                                            (in Bohr units)
read_Zmatrix: Length units: Ang       
read_Zmatrix: Angle  units: deg       
read_Zmatrix: Force tolerances:
read_Zmatrix:    for lengths =     0.001556 Ry/Bohr
read_Zmatrix:    for angles  =     0.000421 Ry/rad

read_Zmatrix: Maximum displacements:
read_Zmatrix:    for lengths =     0.944863 Bohr
read_Zmatrix:    for angles  =     0.349066 rad
%block Zmatrix
molecule_cartesian
  1 0 0 0   X Y Z 0 0 0
  2 1 0 0   HO1 THETA PHI 0 0 0
  2 1 2 0   HO2 HOH TAU 0 0 0
molecule_fractional
  1 0 0 0   X2 Y2 Z2 0 0 0
  2 1 0 0   HO1 THETA PHI 0 0 0
  2 1 2 0   HO2 HOH TAU 0 0 0
fractional
 3  0.8 SiX 0.8   0 0 0
 3  0.75  0.75 SiZ  0 0 0
variables
    X   0.1
    Y   0.11
    Z   0.12
    X2   0.5
    Y2   0.5
    Z2   0.5
    THETA  90.0
    PHI    37.0
    TAU    90.0
    SiX    0.85
constants
    HO1 0.956997
    HO2 0.956997
    HOH 104.0
    SiZ 0.75
%endblock Zmatrix
 nZmol:            2
 nSpecies:            1           2           2           1           2           2           3           3

zmatrix: Z-matrix coordinates: (Ang ; deg )
zmatrix: (Fractional coordinates have been converted to cartesian)
molecule    1 (     3 atoms)
      0.10000000      0.11000000      0.12000000
      0.95699700     90.00000000     37.00000000
      0.95699700    104.00000000     90.00000000
molecule    2 (     3 atoms)
      4.75000000      6.25000000      4.95000000
      0.95699700     90.00000000     37.00000000
      0.95699700    104.00000000     90.00000000
cartesian block    1 (     2 atoms)
      7.62500000     10.40000000      7.96500000
      7.12500000      9.37500000      7.42500000


Z-matrix Symbol Section -------
Variables
 X           0.10000000000000001     
 Y           0.11000000000000000     
 Z           0.12000000000000000     
 THETA        90.000000000000128     
 PHI          37.000000000000050     
 TAU          90.000000000000128     
 X2           0.0000000000000000     
 Y2           0.0000000000000000     
 Z2           0.0000000000000000     
 SiX          0.0000000000000000     
Constants
 HO1         0.95699699999999988     
 HO2         0.95699699999999988     
 HOH          104.00000000000014     
 SiZ          0.0000000000000000     
------------ End of Z-matrix Information


siesta: Atomic coordinates (Bohr) and species
siesta:      0.18897   0.20787   0.22677  1        1
siesta:      1.63328   1.29623   0.22677  2        2
siesta:     -1.21647   1.34597   0.22677  2        3
siesta:      8.97620  11.81079   9.35415  1        4
siesta:     10.42051  12.89915   9.35415  2        5
siesta:      7.57076  12.94890   9.35415  2        6
siesta:     14.40917  19.65316  15.05167  3        7
siesta:     13.46430  17.71619  14.03122  3        8

siesta: System type = bulk      

initatomlists: Number of atoms, orbitals, and projectors:      8    72   100

siesta: ******************** Simulation parameters ****************************
siesta:
siesta: The following are some of the parameters of the simulation.
siesta: A complete list of the parameters used, including default values,
siesta: can be found in file out.fdf
siesta:
redata: Spin configuration                          = none
redata: Number of spin components                   = 1
redata: Time-Reversal Symmetry                      = T
redata: Spin-spiral                                 = F
redata: Long output                                 =   F
redata: Number of Atomic Species                    =        3
redata: Charge density info will appear in .RHO file
redata: Write Mulliken Pop.                         = NO
redata: Matel table size (NRTAB)                    =     1024
redata: Mesh Cutoff                                 =    60.0000 Ry
redata: Net charge of the system                    =     0.0000 |e|
redata: Min. number of SCF Iter                     =        0
redata: Max. number of SCF Iter                     =     1000
redata: SCF convergence failure will abort job
redata: SCF mix quantity                            = Hamiltonian
redata: Mix DM or H after convergence               =   F
redata: Recompute H after scf cycle                 =   F
redata: Mix DM in first SCF step                    =   T
redata: Write Pulay info on disk                    =   F
redata: New DM Mixing Weight                        =     0.3000
redata: New DM Occupancy tolerance                  = 0.000000000001
redata: No kicks to SCF
redata: DM Mixing Weight for Kicks                  =     0.5000
redata: Require Harris convergence for SCF          =   F
redata: Harris energy tolerance for SCF             =     0.000100 eV
redata: Require DM convergence for SCF              =   T
redata: DM tolerance for SCF                        =     0.000100
redata: Require EDM convergence for SCF             =   F
redata: EDM tolerance for SCF                       =     0.001000 eV
redata: Require H convergence for SCF               =   T
redata: Hamiltonian tolerance for SCF               =     0.001000 eV
redata: Require (free) Energy convergence for SCF   =   F
redata: (free) Energy tolerance for SCF             =     0.000100 eV
redata: Using Saved Data (generic)                  =   F
redata: Use continuation files for DM               =   F
redata: Neglect nonoverlap interactions             =   F
redata: Method of Calculation                       = Diagonalization
redata: Electronic Temperature                      =   299.9869 K
redata: Fix the spin of the system                  =   F
redata: Dynamics option                             = CG coord. optimization
redata: Variable cell                               =   T
redata: Use continuation files for CG               =   F
redata: Max atomic displ per move                   =     0.1058 Ang
redata: Maximum number of CG moves                  =        4
redata: Force tolerance                             =     0.0400 eV/Ang
redata: Stress tolerance                            =     1.0000 GPa
mix.SCF: Pulay mixing                            = Pulay
mix.SCF:    Variant                              = stable
mix.SCF:    History steps                        = 5
mix.SCF:    Linear mixing weight                 =     0.300000
mix.SCF:    Mixing weight                        =     0.300000
mix.SCF:    SVD condition                        = 0.1000E-07
redata: Save all siesta data in one NC              =   F
redata: ***********************************************************************

%block SCF.Mixers
  Pulay
%endblock SCF.Mixers

%block SCF.Mixer.Pulay
  # Mixing method
  method pulay
  variant stable

  # Mixing options
  weight 0.3000
  weight.linear 0.3000
  history 5
%endblock SCF.Mixer.Pulay

DM_history_depth set to one: no extrapolation allowed by default for geometry relaxation
Size of DM history Fstack: 1
Total number of electrons:    24.000000
Total ionic charge:    24.000000

* ProcessorY, Blocksize:    2   9


* Orbital distribution balance (max,min):     9     9

 Kpoints in:            1 . Kpoints trimmed:            1

siesta: k-grid: Number of k-points =     1
siesta: k-grid: Cutoff (effective) =     4.033 Ang
siesta: k-grid: Supercell and displacements
siesta: k-grid:    1   0   0      0.000
siesta: k-grid:    0   1   0      0.000
siesta: k-grid:    0   0   1      0.000

diag: Algorithm                                     = D&C
diag: Parallel over k                               =   F
diag: Use parallel 2D distribution                  =   T
diag: Parallel block-size                           = 9
diag: Parallel distribution                         =     2 x     4
diag: Used triangular part                          = Lower
diag: Absolute tolerance                            =  0.100E-15
diag: Orthogonalization factor                      =  0.100E-05
diag: Memory factor                                 =  1.0000


ts: **************************************************************
ts: Save H and S matrices                           =    F
ts: Save DM and EDM matrices                        =    F
ts: Fix Hartree potential                           =    F
ts: Only save the overlap matrix S                  =    F
ts: **************************************************************

************************ Begin: TS CHECKS AND WARNINGS ************************
************************ End: TS CHECKS AND WARNINGS **************************


                     ====================================
                        Begin CG opt. move =      0

zmatrix: Z-matrix coordinates: (Ang ; deg )
zmatrix: (Fractional coordinates have been converted to cartesian)
molecule    1 (     3 atoms)
      0.10000000      0.11000000      0.12000000
      0.95699700     90.00000000     37.00000000
      0.95699700    104.00000000     90.00000000
molecule    2 (     3 atoms)
      4.75000000      6.25000000      4.95000000
      0.95699700     90.00000000     37.00000000
      0.95699700    104.00000000     90.00000000
cartesian block    1 (     2 atoms)
      7.62500000     10.40000000      7.96500000
      7.12500000      9.37500000      7.42500000


Z-matrix Symbol Section -------
Variables
 X           0.10000000000000001     
 Y           0.11000000000000000     
 Z           0.12000000000000000     
 THETA        90.000000000000128     
 PHI          37.000000000000050     
 TAU          90.000000000000128     
 X2          0.50000000000000000     
 Y2          0.50000000000000022     
 Z2          0.50000000000000000     
 SiX         0.85000000000000009     
Constants
 HO1         0.95699699999999988     
 HO2         0.95699699999999988     
 HOH          104.00000000000014     
 SiZ         0.75000000000000000     
------------ End of Z-matrix Information

                     ====================================

outcell: Unit cell vectors (Ang):
        8.000000    2.000000    1.000000
        0.500000    8.000000    0.900000
        1.000000    2.500000    8.000000

outcell: Cell vector modules (Ang)   :    8.306624    8.065978    8.440972
outcell: Cell angles (23,13,12) (deg):     65.9931     72.5722     71.8241
outcell: Cell volume (Ang**3)        :    481.0500
Gamma-point calculation with multiply-connected orbital pairs
Folding of H and S implicitly performed
<dSpData1D:S at geom step 0
  <sparsity:sparsity for geom step 0
    nrows_g=72 nrows=9 sparsity=.0795 nnzs=412, refcount: 7>
  <dData1D:(new from dSpData1D) n=412, refcount: 1>
refcount: 1>
new_DM -- step:     1
Initializing Density Matrix...
DM filled with atomic data:
<dSpData2D:DM initialized from atoms
  <sparsity:sparsity for geom step 0
    nrows_g=72 nrows=9 sparsity=.0795 nnzs=412, refcount: 8>
  <dData2D:DM n=412 m=1, refcount: 1>
refcount: 1>
No. of atoms with KB's overlaping orbs in proc 0. Max # of overlaps:       3      32
New grid distribution:   1
           1       1:   20    1:    9    1:    5
           2       1:   20    1:    9    6:   10
           3       1:   20    1:    9   11:   14
           4       1:   20    1:    9   15:   18
           5       1:   20   10:   18    1:    5
           6       1:   20   10:   18    6:   10
           7       1:   20   10:   18   11:   14
           8       1:   20   10:   18   15:   18

InitMesh: MESH =    40 x    36 x    36 =       51840
InitMesh: (bp) =    20 x    18 x    18 =        6480
InitMesh: Mesh cutoff (required, used) =    60.000    62.724 Ry
ExtMesh (bp) on 0 =    60 x    49 x    41 =      120540
New grid distribution:   2
           1       1:   13    1:   12    1:   12
           2      14:   20   12:   18    1:   11
           3      14:   20    1:   10   12:   18
           4       1:   13    1:   11   13:   18
           5       1:   13   13:   18    1:   12
           6      14:   20    1:   11    1:   11
           7      14:   20   11:   18   12:   18
           8       1:   13   12:   18   13:   18
New grid distribution:   3
           1       1:   11    1:   12    1:   10
           2      12:   20   10:   18    1:    9
           3      12:   20    1:    9   10:   18
           4      12:   20    1:    9    1:    9
           5       1:   11    1:    9   11:   18
           6       1:   11   13:   18    1:   10
           7       1:   11   10:   18   11:   18
           8      12:   20   10:   18   10:   18
Setting up quadratic distribution...
ExtMesh (bp) on 0 =    53 x    52 x    48 =      132288
PhiOnMesh: Number of (b)points on node 0 =                 1872
PhiOnMesh: nlist on node 0 =                17518

stepf: Fermi-Dirac step function

siesta: Program's energy decomposition (eV):
siesta: Ebs     =      -224.023774
siesta: Eions   =      2012.511081
siesta: Ena     =       487.797274
siesta: Ekin    =       859.719598
siesta: Enl     =       -93.684487
siesta: Eso     =         0.000000
siesta: Eldau   =         0.000000
siesta: DEna    =       -63.075467
siesta: DUscf   =         9.198846
siesta: DUext   =         0.000000
siesta: Enegf   =         0.000000
siesta: Exc     =      -302.737351
siesta: eta*DQ  =         0.000000
siesta: Emadel  =         0.000000
siesta: Emeta   =         0.000000
siesta: Emolmec =         0.000000
siesta: Ekinion =         0.000000
siesta: Eharris =     -1111.084399
siesta: Etot    =     -1115.292667
siesta: FreeEng =     -1115.292667

        iscf     Eharris(eV)        E_KS(eV)     FreeEng(eV)     dDmax    Ef(eV) dHmax(eV)
   scf:    1    -1111.084399    -1115.292667    -1115.292667  1.830314 -7.079448  9.261498
timer: Routine,Calls,Time,% = IterSCF        1       0.037   0.57
   scf:    2    -1120.679077    -1118.638776    -1118.638776  0.133001 -5.265737  2.246187
   scf:    3    -1119.070715    -1118.924730    -1118.924730  0.034737 -4.705331  0.497331
   scf:    4    -1118.958163    -1118.946624    -1118.946624  0.018092 -4.631547  0.196385
   scf:    5    -1118.948366    -1118.947790    -1118.947790  0.003112 -4.590535  0.122075
   scf:    6    -1118.948947    -1118.948422    -1118.948422  0.007803 -4.503979  0.036400
   scf:    7    -1118.948485    -1118.948467    -1118.948467  0.000491 -4.512154  0.004490
   scf:    8    -1118.948472    -1118.948469    -1118.948469  0.000195 -4.512032  0.002580
   scf:    9    -1118.948472    -1118.948471    -1118.948471  0.000270 -4.512853  0.000233
   scf:   10    -1118.948471    -1118.948471    -1118.948471  0.000033 -4.512814  0.000150

SCF Convergence by DM+H criterion
max |DM_out - DM_in|         :     0.0000331472
max |H_out - H_in|      (eV) :     0.0001501696
SCF cycle converged after 10 iterations

Using DM_out to compute the final energy and forces
No. of atoms with KB's overlaping orbs in proc 0. Max # of overlaps:       3      32

siesta: E_KS(eV) =            -1118.9485

siesta: E_KS - E_eggbox =     -1118.9485

zmatrix: Atomic forces (eV/Ang ; eV/deg )
zmatrix: (No information if symbols are used)
molecule    1 (     3 atoms)
     1    0.000000    0.000000    0.000000
     2    0.000000    0.000000    0.000000
     3    0.000000    0.000000    0.000000
molecule    2 (     3 atoms)
     4    0.000000    0.000000    0.000000
     5    0.000000    0.000000    0.000000
     6    0.000000    0.000000    0.000000
cartesian    1 (     2 atoms)
     7    0.000000    0.000000    0.000000
     8    0.000000    0.000000    0.000000


Variable forces (eV/Ang ; eV/deg )
 X          -0.46487268598973991     
 Y          -0.62576838814559310     
 Z           0.50576644627042289     
 THETA        1.8184776232935899E-003
 PHI         -1.7001125063614358E-003
 TAU         -1.2621949341471705E-003
 X2          -3.7884150554308216E-002
 Y2          0.22083484756959157     
 Z2          -2.8373182143220856E-002
 SiX          66.520535565289521     

siesta: Atomic forces (eV/Ang):
     1   -0.535599   -1.705588    0.483668
     2    0.957301    0.450450   -0.058881
     3   -0.886575    0.629369    0.080979
     4   -0.024482   -0.729212    0.005875
     5    0.893812    0.476630   -0.031150
     6   -0.907215    0.473417   -0.003098
     7   32.563671   66.520536   35.077742
     8  -32.425698  -66.458981  -34.995172
----------------------------------------
   Tot   -0.364784   -0.343379    0.559963
----------------------------------------
   Max   66.520536
   Res   23.644110    sqrt( Sum f_i^2 / 3N )
----------------------------------------
   Max   66.520536    constrained

Stress-tensor-Voigt (kbar):      -61.97     -230.36      -62.26     -109.36     -118.56      -57.25
(Free)E + p*V (eV/cell)    -1083.4612
Target enthalpy (eV/cell)    -1118.9485

siesta: Stress tensor (static) (eV/Ang**3):
        -0.038678   -0.068257   -0.035730
        -0.068257   -0.143778   -0.074000
        -0.035730   -0.074000   -0.038856

siesta: Pressure (static):        118.19465182  kBar

siesta: Stress tensor (total) (eV/Ang**3):
        -0.038678   -0.068257   -0.035730
        -0.068257   -0.143778   -0.074000
        -0.035730   -0.074000   -0.038856

siesta: Pressure (total):        118.19465182  kBar

cgvc_zmatrix: No target stress found, assuming hydrostatic MD.TargetPressure.

cgvc_zmatrix: Target stress (kBar)
cgvc_zmatrix:        -0.000       0.000       0.000
cgvc_zmatrix:        -0.000       0.000       0.000
cgvc_zmatrix:        -0.000       0.000       0.000

                     ====================================
                        Begin CG opt. move =      1

zmatrix: Z-matrix coordinates: (Ang ; deg )
zmatrix: (Fractional coordinates have been converted to cartesian)
molecule    1 (     3 atoms)
      0.09910679      0.11009402      0.12484798
      0.95699700     90.16155954     36.84895640
      0.95699700    104.00000000     89.88786244
molecule    2 (     3 atoms)
      4.86461819      6.48328397      5.07021459
      0.95699700     90.16155954     36.84895640
      0.95699700    104.00000000     89.88786244
cartesian block    1 (     2 atoms)
      7.62500000     10.12344494      7.96500000
      7.12500000      9.37500000      7.42500000


Z-matrix Symbol Section -------
Variables
 X            9.9106787306851699E-002
 Y           0.11009402260756267     
 Z           0.12484798488681255     
 THETA        90.161559543036233     
 PHI          36.848956403906605     
 TAU          89.887862443743614     
 X2          0.49996671260881131     
 Y2          0.50020579027311418     
 Z2          0.49997585681990192     
 SiX         0.77836779828860669     
Constants
 HO1         0.95699699999999988     
 HO2         0.95699699999999988     
 HOH          104.00000000000014     
 SiZ         0.73394489320292033     
------------ End of Z-matrix Information

                     ====================================

outcell: Unit cell vectors (Ang):
        8.070239    2.132353    1.068931
        0.587138    8.182420    0.994033
        1.072207    2.648698    8.077517

outcell: Cell vector modules (Ang)   :    8.415361    8.263463    8.568052
outcell: Cell angles (23,13,12) (deg):     64.6338     71.4526     70.4687
outcell: Cell volume (Ang**3)        :    496.5875
Gamma-point calculation with multiply-connected orbital pairs
Folding of H and S implicitly performed
<dSpData1D:S at geom step 1
  <sparsity:sparsity for geom step 1
    nrows_g=72 nrows=9 sparsity=.0662 nnzs=343, refcount: 7>
  <dData1D:(new from dSpData1D) n=343, refcount: 1>
refcount: 1>
new_DM -- step:     2
Re-using DM from previous geometries...
Number of DMs in history: 1
 DM extrapolation coefficients: 
1   1.00000
New DM after history re-use:
<dSpData2D:SpM extrapolated using coords
  <sparsity:sparsity for geom step 1
    nrows_g=72 nrows=9 sparsity=.0662 nnzs=343, refcount: 9>
  <dData2D:(temp array for extrapolation) n=343 m=1, refcount: 1>
refcount: 1>
Note: For starting DM, Qtot, Tr[D*S] =         24.00000000         24.25048304
No. of atoms with KB's overlaping orbs in proc 0. Max # of overlaps:       3      31
New grid distribution:   1
           1       1:   20    1:    9    1:    5
           2       1:   20    1:    9    6:   10
           3       1:   20    1:    9   11:   14
           4       1:   20    1:    9   15:   18
           5       1:   20   10:   18    1:    5
           6       1:   20   10:   18    6:   10
           7       1:   20   10:   18   11:   14
           8       1:   20   10:   18   15:   18

InitMesh: MESH =    40 x    36 x    36 =       51840
InitMesh: (bp) =    20 x    18 x    18 =        6480
InitMesh: Mesh cutoff (required, used) =    60.000    62.389 Ry
ExtMesh (bp) on 0 =    60 x    49 x    41 =      120540
New grid distribution:   2
           1       1:   13    1:   12    1:   12
           2      14:   20   12:   18    1:   11
           3      14:   20    1:   10   12:   18
           4       1:   13    1:   11   13:   18
           5       1:   13   13:   18    1:   12
           6      14:   20    1:   11    1:   11
           7      14:   20   11:   18   12:   18
           8       1:   13   12:   18   13:   18
New grid distribution:   3
           1       1:   11    1:   12    1:   10
           2      12:   20   10:   18    1:    9
           3      12:   20    1:    9   10:   18
           4      12:   20    1:    9    1:    9
           5       1:   11    1:    9   11:   18
           6       1:   11   13:   18    1:   10
           7       1:   11   10:   18   11:   18
           8      12:   20   10:   18   10:   18
Setting up quadratic distribution...
ExtMesh (bp) on 0 =    53 x    52 x    48 =      132288
PhiOnMesh: Number of (b)points on node 0 =                 1872
PhiOnMesh: nlist on node 0 =                17042

        iscf     Eharris(eV)        E_KS(eV)     FreeEng(eV)     dDmax    Ef(eV) dHmax(eV)
   scf:    1    -1094.858677    -1094.800218    -1094.800218  0.134799 -5.684670  3.888414
   scf:    2    -1091.097568    -1093.921653    -1093.921653  0.143230 -4.951346  6.037516
   scf:    3    -1095.626503    -1095.193717    -1095.193717  0.090659 -4.537275  0.317135
   scf:    4    -1095.196787    -1095.195635    -1095.195635  0.008201 -4.355740  0.086931
   scf:    5    -1095.196014    -1095.195941    -1095.195941  0.003248 -4.323140  0.053602
   scf:    6    -1095.196002    -1095.195982    -1095.195982  0.000921 -4.302778  0.002108
   scf:    7    -1095.195984    -1095.195983    -1095.195983  0.000120 -4.303323  0.000982
   scf:    8    -1095.195984    -1095.195984    -1095.195984  0.000144 -4.303268  0.000319
   scf:    9    -1095.195984    -1095.195984    -1095.195984  0.000048 -4.303177  0.000086

SCF Convergence by DM+H criterion
max |DM_out - DM_in|         :     0.0000478105
max |H_out - H_in|      (eV) :     0.0000862602
SCF cycle converged after 9 iterations

Using DM_out to compute the final energy and forces
No. of atoms with KB's overlaping orbs in proc 0. Max # of overlaps:       3      31

siesta: E_KS(eV) =            -1095.1960

zmatrix: Atomic forces (eV/Ang ; eV/deg )
zmatrix: (No information if symbols are used)
molecule    1 (     3 atoms)
     1    0.000000    0.000000    0.000000
     2    0.000000    0.000000    0.000000
     3    0.000000    0.000000    0.000000
molecule    2 (     3 atoms)
     4    0.000000    0.000000    0.000000
     5    0.000000    0.000000    0.000000
     6    0.000000    0.000000    0.000000
cartesian    1 (     2 atoms)
     7    0.000000    0.000000    0.000000
     8    0.000000    0.000000    0.000000


Variable forces (eV/Ang ; eV/deg )
 X          -0.49999656940035875     
 Y          -0.46947412897212165     
 Z           0.65101006203352330     
 THETA        7.2879316592764406E-004
 PHI         -8.5200351949500912E-004
 TAU         -1.6147971715830910E-004
 X2          -2.3317926584650109E-002
 Y2          0.17225189629926935     
 Z2          -3.2306862182520081E-002
 SiX          104.93768468030038     

siesta: Atomic forces (eV/Ang):
     1   -0.572425   -1.521948    0.663510
     2    0.927459    0.472306   -0.037218
     3   -0.855031    0.580169    0.024718
     4   -0.040847   -0.800344   -0.013086
     5    0.915164    0.490977   -0.010346
     6   -0.897635    0.481618   -0.008875
     7   70.126779  104.937685   75.689419
     8  -70.087414 -104.958132  -75.666737
----------------------------------------
   Tot   -0.483949   -0.317669    0.641386
----------------------------------------
   Max  104.958132
   Res   42.485526    sqrt( Sum f_i^2 / 3N )
----------------------------------------
   Max  104.958132    constrained

Stress-tensor-Voigt (kbar):     -121.44     -256.65     -131.60     -168.32     -182.07     -121.56
(Free)E + p*V (eV/cell)    -1042.5380
Target enthalpy (eV/cell)    -1095.1960

siesta: Stress tensor (static) (eV/Ang**3):
        -0.075799   -0.105055   -0.075872
        -0.105055   -0.160185   -0.113637
        -0.075872   -0.113637   -0.082136

siesta: Pressure (static):        169.89621216  kBar

siesta: Stress tensor (total) (eV/Ang**3):
        -0.075799   -0.105055   -0.075872
        -0.105055   -0.160185   -0.113637
        -0.075872   -0.113637   -0.082136

siesta: Pressure (total):        169.89621216  kBar

                     ====================================
                        Begin CG opt. move =      2

zmatrix: Z-matrix coordinates: (Ang ; deg )
zmatrix: (Fractional coordinates have been converted to cartesian)
molecule    1 (     3 atoms)
      0.09811672      0.10999516      0.12959671
      0.95699700     90.32311909     36.69791281
      0.95699700    104.00000000     89.77572489
molecule    2 (     3 atoms)
      4.97926408      6.71662703      5.19045954
      0.95699700     90.32311909     36.69791281
      0.95699700    104.00000000     89.77572489
cartesian block    1 (     2 atoms)
      7.62500000      9.85572928      7.96500000
      7.12500000      9.37500000      7.42500000


Z-matrix Symbol Section -------
Variables
 X            9.8116717263129843E-002
 Y           0.10999515934966553     
 Z           0.12959671112124077     
 THETA        90.323119086072339     
 PHI          36.697912807813161     
 TAU          89.775724887487087     
 X2          0.49993342521762241     
 Y2          0.50041158054622814     
 Z2          0.49995171363980373     
 SiX         0.71103563923690416     
Constants
 HO1         0.95699699999999988     
 HO2         0.95699699999999988     
 HOH          104.00000000000014     
 SiZ         0.71884002938349567     
------------ End of Z-matrix Information

                     ====================================

outcell: Unit cell vectors (Ang):
        8.140478    2.264705    1.137861
        0.674277    8.364839    1.088066
        1.144413    2.797396    8.155035

outcell: Cell vector modules (Ang)   :    8.525902    8.462214    8.697109
outcell: Cell angles (23,13,12) (deg):     63.3207     70.3535     69.1570
outcell: Cell volume (Ang**3)        :    512.1503
Gamma-point calculation with multiply-connected orbital pairs
Folding of H and S implicitly performed
<dSpData1D:S at geom step 2
  <sparsity:sparsity for geom step 2
    nrows_g=72 nrows=9 sparsity=.0623 nnzs=323, refcount: 7>
  <dData1D:(new from dSpData1D) n=323, refcount: 1>
refcount: 1>
new_DM -- step:     3
Re-using DM from previous geometries...
Number of DMs in history: 1
 DM extrapolation coefficients: 
1   1.00000
New DM after history re-use:
<dSpData2D:SpM extrapolated using coords
  <sparsity:sparsity for geom step 2
    nrows_g=72 nrows=9 sparsity=.0623 nnzs=323, refcount: 9>
  <dData2D:(temp array for extrapolation) n=323 m=1, refcount: 1>
refcount: 1>
Note: For starting DM, Qtot, Tr[D*S] =         24.00000000         24.19732947
No. of atoms with KB's overlaping orbs in proc 0. Max # of overlaps:       3      31
New grid distribution:   1
           1       1:   20    1:    9    1:    5
           2       1:   20    1:    9    6:   10
           3       1:   20    1:    9   11:   14
           4       1:   20    1:    9   15:   18
           5       1:   20   10:   18    1:    5
           6       1:   20   10:   18    6:   10
           7       1:   20   10:   18   11:   14
           8       1:   20   10:   18   15:   18

InitMesh: MESH =    40 x    36 x    36 =       51840
InitMesh: (bp) =    20 x    18 x    18 =        6480
InitMesh: Mesh cutoff (required, used) =    60.000    62.083 Ry
ExtMesh (bp) on 0 =    60 x    49 x    41 =      120540
New grid distribution:   2
           1       1:   13    1:   12    1:   11
           2      14:   20    1:   11    1:   11
           3      14:   20   12:   18    1:   11
           4      14:   20    1:   10   12:   18
           5       1:   13   13:   18    1:   11
           6      14:   20   11:   18   12:   18
           7       1:   13   12:   18   12:   18
           8       1:   13    1:   11   12:   18
New grid distribution:   3
           1       1:   11    1:   12    1:   11
           2      12:   20    1:    9    1:    9
           3      12:   20    1:    9   10:   18
           4       1:   11    1:    9   12:   18
           5      12:   20   10:   18    1:    9
           6       1:   11   13:   18    1:   11
           7      12:   20   10:   18   10:   18
           8       1:   11   10:   18   12:   18
Setting up quadratic distribution...
ExtMesh (bp) on 0 =    53 x    52 x    47 =      129532
PhiOnMesh: Number of (b)points on node 0 =                 1716
PhiOnMesh: nlist on node 0 =                14357

        iscf     Eharris(eV)        E_KS(eV)     FreeEng(eV)     dDmax    Ef(eV) dHmax(eV)
   scf:    1    -1063.181069    -1063.036638    -1063.036638  0.149210 -5.106307  2.438592
   scf:    2    -1061.374097    -1062.654504    -1062.654504  0.097784 -3.485481  3.730498
   scf:    3    -1063.436944    -1063.233630    -1063.233630  0.059672 -4.432148  0.197414
   scf:    4    -1063.236748    -1063.235450    -1063.235450  0.005478 -4.352900  0.046581
   scf:    5    -1063.235521    -1063.235534    -1063.235534  0.001769 -4.347518  0.033867
   scf:    6    -1063.235565    -1063.235557    -1063.235557  0.000374 -4.336626  0.001387
   scf:    7    -1063.235558    -1063.235557    -1063.235557  0.000110 -4.336196  0.000500
   scf:    8    -1063.235557    -1063.235557    -1063.235557  0.000069 -4.336175  0.000137

SCF Convergence by DM+H criterion
max |DM_out - DM_in|         :     0.0000691895
max |H_out - H_in|      (eV) :     0.0001365663
SCF cycle converged after 8 iterations

Using DM_out to compute the final energy and forces
No. of atoms with KB's overlaping orbs in proc 0. Max # of overlaps:       3      31

siesta: E_KS(eV) =            -1063.2356

zmatrix: Atomic forces (eV/Ang ; eV/deg )
zmatrix: (No information if symbols are used)
molecule    1 (     3 atoms)
     1    0.000000    0.000000    0.000000
     2    0.000000    0.000000    0.000000
     3    0.000000    0.000000    0.000000
molecule    2 (     3 atoms)
     4    0.000000    0.000000    0.000000
     5    0.000000    0.000000    0.000000
     6    0.000000    0.000000    0.000000
cartesian    1 (     2 atoms)
     7    0.000000    0.000000    0.000000
     8    0.000000    0.000000    0.000000


Variable forces (eV/Ang ; eV/deg )
 X          -0.58637542171729984     
 Y          -0.30928308493836915     
 Z           0.75286463332831854     
 THETA       -1.6811236268620577E-004
 PHI         -4.1317820670055608E-004
 TAU          4.8604511285506302E-004
 X2           3.7897590568074652E-002
 Y2          0.14550398794668493     
 Z2           4.7572831371948086E-003
 SiX          128.85102285613220     

siesta: Atomic forces (eV/Ang):
     1   -0.639683   -1.352322    0.801015
     2    0.916919    0.485164   -0.039910
     3   -0.863611    0.557875   -0.008240
     4   -0.029364   -0.859824   -0.015007
     5    0.952787    0.511074    0.029759
     6   -0.885525    0.494254   -0.009994
     7  134.117691  128.851023  144.769203
     8 -134.174326 -128.953586 -144.819799
----------------------------------------
   Tot   -0.605112   -0.266342    0.707026
----------------------------------------
   Max  144.819799
   Res   68.056584    sqrt( Sum f_i^2 / 3N )
----------------------------------------
   Max  144.819799    constrained

Stress-tensor-Voigt (kbar):     -218.25     -197.21     -244.26     -200.96     -217.12     -226.06
(Free)E + p*V (eV/cell)     -992.9411
Target enthalpy (eV/cell)    -1063.2356

siesta: Stress tensor (static) (eV/Ang**3):
        -0.136220   -0.125429   -0.141096
        -0.125429   -0.123089   -0.135517
        -0.141096   -0.135516   -0.152453

siesta: Pressure (static):        219.90691748  kBar

siesta: Stress tensor (total) (eV/Ang**3):
        -0.136220   -0.125429   -0.141096
        -0.125429   -0.123089   -0.135517
        -0.141096   -0.135516   -0.152453

siesta: Pressure (total):        219.90691748  kBar

                     ====================================
                        Begin CG opt. move =      3

zmatrix: Z-matrix coordinates: (Ang ; deg )
zmatrix: (Fractional coordinates have been converted to cartesian)
molecule    1 (     3 atoms)
      0.09702979      0.10970341      0.13424618
      0.95699700     90.48467863     36.54686921
      0.95699700    104.00000000     89.66358733
molecule    2 (     3 atoms)
      5.09393767      6.95002917      5.31073487
      0.95699700     90.48467863     36.54686921
      0.95699700    104.00000000     89.66358733
cartesian block    1 (     2 atoms)
      7.62500000      9.59962006      7.96500000
      7.12500000      9.37500000      7.42500000


Z-matrix Symbol Section -------
Variables
 X            9.7029789868834398E-002
 Y           0.10970341022630857     
 Z           0.13424617870328459     
 THETA        90.484678629108458     
 PHI          36.546869211719716     
 TAU          89.663587331230573     
 X2          0.49990013782643355     
 Y2          0.50061737081934243     
 Z2          0.49992757045970582     
 SiX         0.64803046949944743     
Constants
 HO1         0.95699699999999988     
 HO2         0.95699699999999988     
 HOH          104.00000000000014     
 SiZ         0.70460351065029625     
------------ End of Z-matrix Information

                     ====================================

outcell: Unit cell vectors (Ang):
        8.210717    2.397058    1.206792
        0.761415    8.547259    1.182099
        1.216620    2.946094    8.232552

outcell: Cell vector modules (Ang)   :    8.638177    8.662144    8.828055
outcell: Cell angles (23,13,12) (deg):     62.0521     69.2752     67.8871
outcell: Cell volume (Ang**3)        :    527.7384
Gamma-point calculation with multiply-connected orbital pairs
Folding of H and S implicitly performed
<dSpData1D:S at geom step 3
  <sparsity:sparsity for geom step 3
    nrows_g=72 nrows=9 sparsity=.0716 nnzs=371, refcount: 7>
  <dData1D:(new from dSpData1D) n=371, refcount: 1>
refcount: 1>
new_DM -- step:     4
Re-using DM from previous geometries...
Number of DMs in history: 1
 DM extrapolation coefficients: 
1   1.00000
New DM after history re-use:
<dSpData2D:SpM extrapolated using coords
  <sparsity:sparsity for geom step 3
    nrows_g=72 nrows=9 sparsity=.0716 nnzs=371, refcount: 9>
  <dData2D:(temp array for extrapolation) n=371 m=1, refcount: 1>
refcount: 1>
Note: For starting DM, Qtot, Tr[D*S] =         24.00000000         24.11449260
No. of atoms with KB's overlaping orbs in proc 0. Max # of overlaps:       3      39
New grid distribution:   1
           1       1:   20    1:    9    1:    5
           2       1:   20    1:    9    6:   10
           3       1:   20    1:    9   11:   14
           4       1:   20    1:    9   15:   18
           5       1:   20   10:   18    1:    5
           6       1:   20   10:   18    6:   10
           7       1:   20   10:   18   11:   14
           8       1:   20   10:   18   15:   18

InitMesh: MESH =    40 x    36 x    36 =       51840
InitMesh: (bp) =    20 x    18 x    18 =        6480
InitMesh: Mesh cutoff (required, used) =    60.000    61.802 Ry
ExtMesh (bp) on 0 =    60 x    45 x    41 =      110700
New grid distribution:   2
           1       1:   13    1:   12    1:   11
           2      14:   20    1:   11    1:   11
           3      14:   20   12:   18    1:   11
           4      14:   20   10:   18   12:   18
           5       1:   13   13:   18    1:   11
           6      14:   20    1:    9   12:   18
           7       1:   13   11:   18   12:   18
           8       1:   13    1:   10   12:   18
New grid distribution:   3
           1       1:   11    1:   12    1:   11
           2      12:   20    1:    9    1:    9
           3      12:   20    1:    9   10:   18
           4       1:   11    1:    9   12:   18
           5      12:   20   10:   18    1:    9
           6       1:   11   13:   18    1:   11
           7      12:   20   10:   18   10:   18
           8       1:   11   10:   18   12:   18
Setting up quadratic distribution...
ExtMesh (bp) on 0 =    53 x    48 x    47 =      119568
PhiOnMesh: Number of (b)points on node 0 =                 1716
PhiOnMesh: nlist on node 0 =                14524

        iscf     Eharris(eV)        E_KS(eV)     FreeEng(eV)     dDmax    Ef(eV) dHmax(eV)
   scf:    1    -1032.929194    -1032.767470    -1032.767470  0.141125 -4.697483  1.311174
   scf:    2    -1032.290399    -1032.668033    -1032.668033  0.053161 -3.900222  2.025036
   scf:    3    -1032.903338    -1032.842697    -1032.842697  0.033251 -4.387097  0.106398
   scf:    4    -1032.846111    -1032.844651    -1032.844651  0.005230 -4.356797  0.020705
   scf:    5    -1032.844671    -1032.844666    -1032.844666  0.000590 -4.357913  0.013295
   scf:    6    -1032.844670    -1032.844669    -1032.844669  0.000226 -4.355361  0.001334
   scf:    7    -1032.844669    -1032.844669    -1032.844669  0.000045 -4.355619  0.000372

SCF Convergence by DM+H criterion
max |DM_out - DM_in|         :     0.0000449107
max |H_out - H_in|      (eV) :     0.0003716749
SCF cycle converged after 7 iterations

Using DM_out to compute the final energy and forces
No. of atoms with KB's overlaping orbs in proc 0. Max # of overlaps:       3      39

siesta: E_KS(eV) =            -1032.8447

zmatrix: Atomic forces (eV/Ang ; eV/deg )
zmatrix: (No information if symbols are used)
molecule    1 (     3 atoms)
     1    0.000000    0.000000    0.000000
     2    0.000000    0.000000    0.000000
     3    0.000000    0.000000    0.000000
molecule    2 (     3 atoms)
     4    0.000000    0.000000    0.000000
     5    0.000000    0.000000    0.000000
     6    0.000000    0.000000    0.000000
cartesian    1 (     2 atoms)
     7    0.000000    0.000000    0.000000
     8    0.000000    0.000000    0.000000


Variable forces (eV/Ang ; eV/deg )
 X          -0.71797024399084641     
 Y          -0.14169126053128972     
 Z           0.83803629675460756     
 THETA       -1.0197002624918597E-003
 PHI         -5.6965614017297455E-004
 TAU          7.8682240049359191E-004
 X2           8.1078844346149759E-002
 Y2          0.11243976568519114     
 Z2           5.9729996499624211E-002
 SiX          95.268197930977905     

siesta: Atomic forces (eV/Ang):
     1   -0.751557   -1.174625    0.913642
     2    0.905506    0.467830   -0.057527
     3   -0.871919    0.565104   -0.018079
     4   -0.037088   -0.942224   -0.014602
     5    1.001122    0.546407    0.087087
     6   -0.882955    0.508256   -0.012755
     7  212.482746   95.268198  229.403028
     8 -212.624005  -95.469655 -229.556608
----------------------------------------
   Tot   -0.778150   -0.230709    0.744187
----------------------------------------
   Max  229.556608
   Res   94.401291    sqrt( Sum f_i^2 / 3N )
----------------------------------------
   Max  229.556608    constrained

Stress-tensor-Voigt (kbar):     -330.66      -67.87     -375.29     -143.92     -155.43     -347.46
(Free)E + p*V (eV/cell)     -947.8834
Target enthalpy (eV/cell)    -1032.8447

siesta: Stress tensor (static) (eV/Ang**3):
        -0.206378   -0.089824   -0.216865
        -0.089824   -0.042361   -0.097011
        -0.216866   -0.097011   -0.234235

siesta: Pressure (static):        257.93919653  kBar

siesta: Stress tensor (total) (eV/Ang**3):
        -0.206378   -0.089824   -0.216865
        -0.089824   -0.042361   -0.097011
        -0.216866   -0.097011   -0.234235

siesta: Pressure (total):        257.93919653  kBar

                     ====================================
                        Begin CG opt. move =      4

zmatrix: Z-matrix coordinates: (Ang ; deg )
zmatrix: (Fractional coordinates have been converted to cartesian)
molecule    1 (     3 atoms)
      0.09584601      0.10921878      0.13879639
      0.95699700     90.64623817     36.39582562
      0.95699700    104.00000000     89.55144977
molecule    2 (     3 atoms)
      5.20863897      7.18349041      5.43104056
      0.95699700     90.64623817     36.39582562
      0.95699700    104.00000000     89.55144977
cartesian block    1 (     2 atoms)
      7.62500000      9.35770575      7.96500000
      7.12500000      9.37500000      7.42500000


Z-matrix Symbol Section -------
Variables
 X            9.5846005123965392E-002
 Y           0.10921877523749181     
 Z           0.13879638763294411     
 THETA        90.646238172144564     
 PHI          36.395825615626272     
 TAU          89.551449774974060     
 X2          0.49986685043524476     
 Y2          0.50082316109245639     
 Z2          0.49990342727960779     
 SiX         0.58937422194283928     
Constants
 HO1         0.95699699999999988     
 HO2         0.95699699999999988     
 HOH          104.00000000000014     
 SiZ         0.69116258719689572     
------------ End of Z-matrix Information

                     ====================================

outcell: Unit cell vectors (Ang):
        8.280956    2.529411    1.275723
        0.848553    8.729678    1.276133
        1.288826    3.094792    8.310070

outcell: Cell vector modules (Ang)   :    8.752121    8.863173    8.960807
outcell: Cell angles (23,13,12) (deg):     60.8260     68.2180     66.6576
outcell: Cell volume (Ang**3)        :    543.3520
Gamma-point calculation with multiply-connected orbital pairs
Folding of H and S implicitly performed
<dSpData1D:S at geom step 4
  <sparsity:sparsity for geom step 4
    nrows_g=72 nrows=9 sparsity=.0754 nnzs=391, refcount: 7>
  <dData1D:(new from dSpData1D) n=391, refcount: 1>
refcount: 1>
new_DM -- step:     5
Re-using DM from previous geometries...
Number of DMs in history: 1
 DM extrapolation coefficients: 
1   1.00000
New DM after history re-use:
<dSpData2D:SpM extrapolated using coords
  <sparsity:sparsity for geom step 4
    nrows_g=72 nrows=9 sparsity=.0754 nnzs=391, refcount: 9>
  <dData2D:(temp array for extrapolation) n=391 m=1, refcount: 1>
refcount: 1>
Note: For starting DM, Qtot, Tr[D*S] =         24.00000000         24.03028466
No. of atoms with KB's overlaping orbs in proc 0. Max # of overlaps:       3      39
New grid distribution:   1
           1       1:   20    1:    9    1:    5
           2       1:   20    1:    9    6:   10
           3       1:   20    1:    9   11:   14
           4       1:   20    1:    9   15:   18
           5       1:   20   10:   18    1:    5
           6       1:   20   10:   18    6:   10
           7       1:   20   10:   18   11:   14
           8       1:   20   10:   18   15:   18

InitMesh: MESH =    40 x    36 x    36 =       51840
InitMesh: (bp) =    20 x    18 x    18 =        6480
InitMesh: Mesh cutoff (required, used) =    60.000    61.543 Ry
ExtMesh (bp) on 0 =    60 x    45 x    41 =      110700
New grid distribution:   2
           1       1:   13    1:   11    1:   11
           2      14:   20   11:   18    1:   11
           3      14:   20    1:    8   12:   18
           4       1:   13    1:   10   12:   18
           5       1:   13   12:   18    1:   11
           6      14:   20    1:   10    1:   11
           7      14:   20    9:   18   12:   18
           8       1:   13   11:   18   12:   18
New grid distribution:   3
           1       1:   11    1:   12    1:   10
           2      12:   20    1:    9    1:    9
           3       1:   11    1:    9   11:   18
           4      12:   20   11:   18   10:   18
           5      12:   20   10:   18    1:    9
           6       1:   11   13:   18    1:   10
           7      12:   20    1:   10   10:   18
           8       1:   11   10:   18   11:   18
Setting up quadratic distribution...
ExtMesh (bp) on 0 =    53 x    47 x    47 =      117077
PhiOnMesh: Number of (b)points on node 0 =                 1573
PhiOnMesh: nlist on node 0 =                12425

        iscf     Eharris(eV)        E_KS(eV)     FreeEng(eV)     dDmax    Ef(eV) dHmax(eV)
   scf:    1    -1021.589781    -1021.432800    -1021.432800  0.102832 -4.273661  0.278632
   scf:    2    -1021.411645    -1021.444341    -1021.444341  0.025482 -4.307065  0.445977
   scf:    3    -1021.474320    -1021.466172    -1021.466172  0.011601 -4.281796  0.040346
   scf:    4    -1021.468184    -1021.467320    -1021.467320  0.003978 -4.292690  0.010391
   scf:    5    -1021.467335    -1021.467328    -1021.467328  0.000396 -4.295402  0.004536
   scf:    6    -1021.467330    -1021.467329    -1021.467329  0.000236 -4.298021  0.001139
   scf:    7    -1021.467330    -1021.467330    -1021.467330  0.000046 -4.298682  0.000479

SCF Convergence by DM+H criterion
max |DM_out - DM_in|         :     0.0000463061
max |H_out - H_in|      (eV) :     0.0004788565
SCF cycle converged after 7 iterations

Using DM_out to compute the final energy and forces
No. of atoms with KB's overlaping orbs in proc 0. Max # of overlaps:       3      39

siesta: E_KS(eV) =            -1021.4673

zmatrix: Atomic forces (eV/Ang ; eV/deg )
zmatrix: (No information if symbols are used)
molecule    1 (     3 atoms)
     1    0.000000    0.000000    0.000000
     2    0.000000    0.000000    0.000000
     3    0.000000    0.000000    0.000000
molecule    2 (     3 atoms)
     4    0.000000    0.000000    0.000000
     5    0.000000    0.000000    0.000000
     6    0.000000    0.000000    0.000000
cartesian    1 (     2 atoms)
     7    0.000000    0.000000    0.000000
     8    0.000000    0.000000    0.000000


Variable forces (eV/Ang ; eV/deg )
 X          -0.86448281848775455     
 Y            6.0907078435822569E-002
 Z           0.90501512467487755     
 THETA        3.4630895500117035E-004
 PHI         -4.9283485568390529E-004
 TAU          9.8910733357089305E-004
 X2           6.1353372991405650E-003
 Y2           7.7113537542139845E-004
 Z2          -5.2016749594446562E-002
 SiX         -8.5071753493166522     

siesta: Atomic forces (eV/Ang):
     1   -0.876724   -0.987954    1.001731
     2    0.898407    0.457273   -0.064136
     3   -0.886165    0.591589   -0.032580
     4   -0.077851   -1.078800   -0.050279
     5    0.961993    0.551643    0.002944
     6   -0.878007    0.527928   -0.004682
     7  246.657646   -8.507175  266.418453
     8 -246.710385    8.287111 -266.492125
----------------------------------------
   Tot   -0.911086   -0.158386    0.779327
----------------------------------------
   Max  266.492125
   Res  104.851534    sqrt( Sum f_i^2 / 3N )
----------------------------------------
   Max  266.492125    constrained

Stress-tensor-Voigt (kbar):     -372.21       -3.43     -423.98       12.68       13.79     -392.43
(Free)E + p*V (eV/cell)     -931.0755
Target enthalpy (eV/cell)    -1021.4673

siesta: Stress tensor (static) (eV/Ang**3):
        -0.232313    0.007917   -0.244931
         0.007916   -0.002142    0.008609
        -0.244931    0.008609   -0.264624

siesta: Pressure (static):        266.54044778  kBar

siesta: Stress tensor (total) (eV/Ang**3):
        -0.232313    0.007917   -0.244931
         0.007916   -0.002142    0.008609
        -0.244931    0.008609   -0.264624

siesta: Pressure (total):        266.54044778  kBar

outcoor: Final (unrelaxed) atomic coordinates (Bohr):       
    0.18112277    0.20639366    0.26228726   1       1  O
    1.63672898    1.27939542    0.24189007   2       2  H
   -1.21205887    1.35931801    0.28095810   2       3  H
    9.84290505   13.57483490   10.26318333   1       4  O
   11.29851126   14.64783666   10.24278613   2       5  H
    8.44972341   14.72775925   10.28185416   2       6  H
   14.40916744   17.68350807   15.05167458   3       7  Si
   13.46430400   17.71618948   14.03122207   3       8  Si

zmatrix: Z-matrix coordinates: (Ang ; deg )
zmatrix: (Fractional coordinates have been converted to cartesian)
molecule    1 (     3 atoms)
      0.09589943      0.10924383      0.13860083
      0.95699700     90.63922165     36.40238543
      0.95699700    104.00000000     89.55631991
molecule    2 (     3 atoms)
      5.20365692      7.17334997      5.42581506
      0.95699700     90.63922165     36.40238543
      0.95699700    104.00000000     89.55631991
cartesian block    1 (     2 atoms)
      7.62500000      8.26908686      7.96500000
      7.12500000      9.37500000      7.42500000


Z-matrix Symbol Section -------
Variables
 X            9.5899428765649053E-002
 Y           0.10924382952444263     
 Z           0.13860083400826487     
 THETA        90.639221646806405     
 PHI          36.402385433754255     
 TAU          89.556319905144321     
 X2          0.49942175082505974     
 Y2          0.49994120859448771     
 Z2          0.49947837776986120     
 SiX         0.45479521844884635     
Constants
 HO1         0.95699699999999988     
 HO2         0.95699699999999988     
 HOH          104.00000000000014     
 SiZ         0.69116258719689572     
------------ End of Z-matrix Information


outcell: Unit cell vectors (Ang):
        8.280956    2.529411    1.275723
        0.848553    8.729678    1.276133
        1.288826    3.094792    8.310070

outcell: Cell vector modules (Ang)   :    8.752121    8.863173    8.960807
outcell: Cell angles (23,13,12) (deg):     60.8260     68.2180     66.6576
outcell: Cell volume (Ang**3)        :    543.3520

siesta: Program's energy decomposition (eV):
siesta: Ebs     =      -304.460573
siesta: Eions   =      2012.511081
siesta: Ena     =       570.406295
siesta: Ekin    =       801.426463
siesta: Enl     =       -71.840278
siesta: Eso     =         0.000000
siesta: Eldau   =         0.000000
siesta: DEna    =       -17.076457
siesta: DUscf   =         3.022603
siesta: DUext   =         0.000000
siesta: Enegf   =         0.000000
siesta: Exc     =      -294.894875
siesta: eta*DQ  =         0.000000
siesta: Emadel  =         0.000000
siesta: Emeta   =         0.000000
siesta: Emolmec =         0.000000
siesta: Ekinion =         0.000000
siesta: Eharris =     -1021.467330
siesta: Etot    =     -1021.467330
siesta: FreeEng =     -1021.467330

siesta: Final energy (eV):
siesta:  Band Struct. =    -304.460573
siesta:       Kinetic =     801.426463
siesta:       Hartree =     891.288620
siesta:       Eldau   =       0.000000
siesta:       Eso     =       0.000000
siesta:    Ext. field =       0.000000
siesta:       Enegf   =       0.000000
siesta:   Exch.-corr. =    -294.894875
siesta:  Ion-electron =   -2502.463449
siesta:       Ion-ion =      83.175912
siesta:       Ekinion =       0.000000
siesta:         Total =   -1021.467330
siesta:         Fermi =      -4.298682

siesta: Atomic forces (eV/Ang):
siesta:      1   -0.876724   -0.987954    1.001731
siesta:      2    0.898407    0.457273   -0.064136
siesta:      3   -0.886165    0.591589   -0.032580
siesta:      4   -0.077851   -1.078800   -0.050279
siesta:      5    0.961993    0.551643    0.002944
siesta:      6   -0.878007    0.527928   -0.004682
siesta:      7  246.657646   -8.507175  266.418453
siesta:      8 -246.710385    8.287111 -266.492125
siesta: ----------------------------------------
siesta:    Tot   -0.911086   -0.158386    0.779327

siesta: Stress tensor (static) (eV/Ang**3):
siesta:    -0.232313    0.007917   -0.244931
siesta:     0.007916   -0.002142    0.008609
siesta:    -0.244931    0.008609   -0.264624

siesta: Constrained stress tensor (static) (eV/Ang**3):
siesta:    -0.232313    0.007917   -0.244931
siesta:     0.007917   -0.002142    0.008609
siesta:    -0.244931    0.008609   -0.264624

siesta: Cell volume =        543.351979 Ang**3

siesta: Pressure (static):
siesta:                Solid            Molecule  Units
siesta:           0.00181187          0.00178531  Ry/Bohr**3
siesta:           0.16635966          0.16392091  eV/Ang**3
siesta:         266.54044778        262.63308763  kBar
(Free)E+ p_basis*V_orbitals  =       -1018.316492
(Free)Eharris+ p_basis*V_orbitals  =       -1018.316492
>> End of run:   5-NOV-2018  11:20:34
Job completed
