Siesta Version  : 4.1.5
Architecture    : x86_64-intel
Compiler version: ifort (IFORT) 19.1.3.304 20200925
Compiler flags  : mpiifort -O2 -g -fPIC -fp-model source
PP flags        : -DMPI -DFC_HAVE_ABORT -DHAVE_LIBINT
Libraries       :  -L/public/software/compiler/intel/2020.update4/compilers_and_libraries_2020..4.304/linux/mkl/lib/intel64 -lmkl_intel_lp64 -lmkl_core -lmkl_sequential -lmkl_scalapack_lp64 -lmkl_blacs_intelmpi_lp64 /public/home/xmqin/MathLibs/libint/1.1.5/intel/lib/libderiv.a /public/home/xmqin/MathLibs/libint/1.1.5/intel/lib/libint.a -lpthread -lstdc++
PARALLEL version

* Running on 128 nodes in parallel
>> Start of run:  18-JUN-2025   9:31:09

                           ***********************       
                           *  WELCOME TO SIESTA  *       
                           ***********************       

reinit: Reading from standard input
reinit: Dumped input in INPUT_TMP.90111
************************** Dump of input data file ****************************
SystemName      Bulk Silisin
SystemLabel     Sibulk
NumberOfSpecies	        1
%block ChemicalSpeciesLabel
  1  14  Si
%endblock ChemicalSpeciesLabel
NumberOfAtoms           8
LatticeConstant      5.430 Ang
%block LatticeVectors
  1.00  0.00  0.00
  0.00  1.00  0.00
  0.00  0.00  1.00
%endblock LatticeVectors
AtomicCoordinatesFormat   Fractional
%block AtomicCoordinatesAndAtomicSpecies
  0.00000000000000  0.00000000000000  0.00000000000000  1
  0.00000000000000  0.50000000000000  0.50000000000000  1
  0.50000000000000  0.00000000000000  0.50000000000000  1
  0.50000000000000  0.50000000000000  0.00000000000000  1
  0.75000000000000  0.25000000000000  0.75000000000000  1
  0.25000000000000  0.25000000000000  0.25000000000000  1
  0.25000000000000  0.75000000000000  0.75000000000000  1
  0.75000000000000  0.75000000000000  0.25000000000000  1
%endblock AtomicCoordinatesAndAtomicSpecies
%block Supercell
   2   0   0
   0   2   0
   0   0   2
%endblock Supercell
kgrid.Cutoff 0. Bohr
%block PAO.Basis
Si     3    0.5564780
 n=3    0    2   E    129.4991135  5.4983922
   5.6841605               2.0421107
   1.00000000000000        1.00000000000000
 n=3    1    2   E    81.8582336   5.9078004
   6.439786                3.5339345
   1.00000000000000        1.00000000000000
 n=3    2    1   E    14.1744519   2.3574667
   3.9159002
   1.00000000000000
%endblock PAO.Basis
%block NAO2GTO
Si   5
3  0  1  5
    0.16303247E+00     0.63383670E+00
    0.72395647E+00     0.15046193E+01
    0.10135390E+01    -0.24932928E+01
    0.23816944E+01     0.10284758E+01
    0.33343721E+01    -0.39166455E+00
3  0  2  5
    0.10204082E+01     0.26922872E+01
    0.14285715E+01    -0.57983459E+01
    0.20000000E+01    -0.10201836E+02
    0.28000000E+01     0.16476430E+02
    0.39199999E+01    -0.57551709E+01
3  1  1  4
    0.15000000E+00     0.21382045E+00
    0.50330623E+00     0.44835493E+00
    0.95300463E+00    -0.31444340E+00
    0.16044378E+01     0.82939668E-01
3  1  2  4
    0.56960348E+00     0.39336859E+01
    0.79744486E+00    -0.57162678E+01
    0.11164228E+01     0.32400072E+01
    0.15629919E+01    -0.73843893E+00
3  2  1  4
    0.38934207E+00     0.46504665E+00
    0.13516736E+01     0.27829141E+00
    0.18923430E+01     0.85799466E+00
    0.26492802E+01    -0.44406486E+00
%endblock NAO2GTO
xc.functional      GGA    # Default vaxc.authors         HSE    # Default value
xc.authors        HSE06    # Default value
ElectronicTemperature  25 meV
#DM.UseSaveDM            T
MeshCutoff              250. Ry     # Equivalent planewave cutoff for the grid
MaxSCFIterations        50         # Maximum number of SCF iterations per step
DM.MixingWeight         0.2         # New DM amount for next SCF cycle
DM.Tolerance            1.d-4       # Tolerance in maximum difference
                                    # between input and output DM
DM.NumberPulay          6          # Number of SCF steps between pulay mixing
# Eigenvalue problem: order-N or diagonalization
SolutionMethod          diagon      # OrderN or Diagon
MD.TypeOfRun            cg          # Type of dynamics:
MD.NumCGsteps  0
#MD.VariableCell   .true.
MD.MaxForceTol  0.01 eV/Ang
#WriteMDXmol   .true.
WriteForces  .true.
WriteCoorStep
HFX.UseFittedNAOs  .true.
HFX.Dynamic_parallel .false.
HFX.FragSize 60000
************************** End of input data file *****************************

reinit: -----------------------------------------------------------------------
reinit: System Name: Bulk Silisin
reinit: -----------------------------------------------------------------------
reinit: System Label: Sibulk
reinit: -----------------------------------------------------------------------

initatom: Reading input for the pseudopotentials and atomic orbitals ----------
Species number:   1 Atomic number:   14 Label: Si
 
Ground state valence configuration:   3s02  3p02
Reading pseudopotential information in formatted form from Si.psf

Valence configuration for pseudopotential generation:
3s( 2.00) rc: 1.89
3p( 2.00) rc: 1.89
3d( 0.00) rc: 1.89
4f( 0.00) rc: 1.89
For Si, standard SIESTA heuristics set lmxkb to 3
 (one more than the basis l, including polarization orbitals).
Use PS.lmax or PS.KBprojectors blocks to override.

<basis_specs>
===============================================================================
Si                   Z=  14    Mass=  28.090        Charge= 0.55648    
Lmxo=2 Lmxkb= 3    BasisType=split      Semic=F
L=0  Nsemic=0  Cnfigmx=3
          i=1  nzeta=2  polorb=0  (3s)
            splnorm:   0.15000    
               vcte:    129.50    
               rinn:    5.4984    
               qcoe:    0.0000    
               qyuk:    0.0000    
               qwid:   0.10000E-01
                rcs:    5.6842      2.0421    
            lambdas:    1.0000      1.0000    
L=1  Nsemic=0  Cnfigmx=3
          i=1  nzeta=2  polorb=0  (3p)
            splnorm:   0.15000    
               vcte:    81.858    
               rinn:    5.9078    
               qcoe:    0.0000    
               qyuk:    0.0000    
               qwid:   0.10000E-01
                rcs:    6.4398      3.5339    
            lambdas:    1.0000      1.0000    
L=2  Nsemic=0  Cnfigmx=3
          i=1  nzeta=1  polorb=0  (3d)
            splnorm:   0.15000    
               vcte:    14.174    
               rinn:    2.3575    
               qcoe:    0.0000    
               qyuk:    0.0000    
               qwid:   0.10000E-01
                rcs:    3.9159    
            lambdas:    1.0000    
-------------------------------------------------------------------------------
L=0  Nkbl=1  erefs: 0.17977+309
L=1  Nkbl=1  erefs: 0.17977+309
L=2  Nkbl=1  erefs: 0.17977+309
L=3  Nkbl=1  erefs: 0.17977+309
===============================================================================
</basis_specs>

atom: Called for Si                    (Z =  14)

read_vps: Pseudopotential generation method:
read_vps: ATM3      Troullier-Martins                       
Valence charge for ps generation:    4.00000

xc_check: Exchange-correlation functional:
xc_check: Hybrid Heyd-Scuseria-Ernzerhof 2006
 (JCP 125, 224106, 2006)
xc_check: WARNING: Pseudopotential generated with GGA PBE functional
V l=0 = -2*Zval/r beyond r=  2.7826
V l=1 = -2*Zval/r beyond r=  2.7826
V l=2 = -2*Zval/r beyond r=  2.7826
V l=3 = -2*Zval/r beyond r=  2.7826
All V_l potentials equal beyond r=  1.8652
This should be close to max(r_c) in ps generation
All pots = -2*Zval/r beyond r=  2.7826
Using large-core scheme for Vlocal

atom: Estimated core radius    2.78258

atom: Including non-local core corrections could be a good idea
atom: Maximum radius for 4*pi*r*r*local-pseudopot. charge    3.07525
atom: Maximum radius for r*vlocal+2*Zval:    2.81758
GHOST: No ghost state for L =  0
GHOST: No ghost state for L =  1
GHOST: No ghost state for L =  2
GHOST: No ghost state for L =  3

KBgen: Kleinman-Bylander projectors: 
   l= 0   rc=  1.936440   el= -0.791474   Ekb=  4.527346   kbcos=  0.300929
   l= 1   rc=  1.936440   el= -0.300649   Ekb=  1.471620   kbcos=  0.304055
   l= 2   rc=  1.936440   el=  0.001958   Ekb= -2.865202   kbcos= -0.050894
   l= 3   rc=  1.936440   el=  0.003046   Ekb= -0.889187   kbcos= -0.005274

KBgen: Total number of Kleinman-Bylander projectors:   16
atom: -------------------------------------------------------------------------

atom: SANKEY-TYPE ORBITALS:
atom: Selected multiple-zeta basis: split     

atom: basis set generated (by rescaling the valence charge)
atom: for a cation of charge   0.5565

SPLIT: Orbitals with angular momentum L= 0

SPLIT: Basis orbitals for state 3s

   izeta = 1
                 lambda =    1.000000
                     rc =    5.674097
                 energy =   -1.193786
                kinetic =    0.571580
    potential(screened) =   -1.765366
       potential(ionic) =   -3.820386

   izeta = 2
                 rmatch =    2.035732
              splitnorm =    1.097306
                 energy =    5.434304
                kinetic =    4.530235
    potential(screened) =    0.904069
       potential(ionic) =   -1.842010

SPLIT: Orbitals with angular momentum L= 1

SPLIT: Basis orbitals for state 3p

   izeta = 1
                 lambda =    1.000000
                     rc =    6.429618
                 energy =   -0.660481
                kinetic =    0.968387
    potential(screened) =   -1.628868
       potential(ionic) =   -3.553429

   izeta = 2
                 rmatch =    3.528569
              splitnorm =    0.437886
                 energy =   -0.224636
                kinetic =    2.046251
    potential(screened) =   -2.270887
       potential(ionic) =   -4.455596

SPLIT: Orbitals with angular momentum L= 2

SPLIT: Basis orbitals for state 3d

   izeta = 1
                 lambda =    1.000000
                     rc =    3.899691
                 energy =    0.499133
                kinetic =    3.167061
    potential(screened) =   -2.667928
       potential(ionic) =   -4.768972
atom: Total number of Sankey-type orbitals: 13

atm_pop: Valence configuration (for local Pseudopot. screening):
 3s( 2.00)                                                            
 3p( 2.00)                                                            
 3d( 0.00)                                                            
Vna: chval, zval:    4.00000   4.00000

Vna:  Cut-off radius for the neutral-atom potential:   6.429618

atom: _________________________________________________________________________

prinput: Basis input ----------------------------------------------------------

PAO.BasisType split     

%block ChemicalSpeciesLabel
    1   14 Si                      # Species index, atomic number, species label
%endblock ChemicalSpeciesLabel

%block PAO.Basis                 # Define Basis set
Si                    3   0.556            # Label, l-shells, ionic net charge
 n=3   0   2                         # n, l, Nzeta 
   5.674      2.036   
   1.000      1.000   
 n=3   1   2                         # n, l, Nzeta 
   6.430      3.529   
   1.000      1.000   
 n=3   2   1                         # n, l, Nzeta 
   3.900   
   1.000   
%endblock PAO.Basis

prinput: ----------------------------------------------------------------------

************************ Begin: HYBRID XC INITIALIZATION **********************

nao2gto_transfer: isp, inlz, ipgf, pgf_radius =     1    1    1     7.51624
nao2gto_transfer: isp, inlz, ipgf, pgf_radius =     1    1    2     3.56682
nao2gto_transfer: isp, inlz, ipgf, pgf_radius =     1    1    3     3.01452
nao2gto_transfer: isp, inlz, ipgf, pgf_radius =     1    1    4     1.96650
nao2gto_transfer: isp, inlz, ipgf, pgf_radius =     1    1    5     1.66200
nao2gto_transfer: isp, inlz, shell_radius =     1    1     7.51624     5.67410
nao2gto_transfer: isp, inlz, ipgf, pgf_radius =     1    2    1     3.00435
nao2gto_transfer: isp, inlz, ipgf, pgf_radius =     1    2    2     2.53914
nao2gto_transfer: isp, inlz, ipgf, pgf_radius =     1    2    3     2.14597
nao2gto_transfer: isp, inlz, ipgf, pgf_radius =     1    2    4     1.81367
nao2gto_transfer: isp, inlz, ipgf, pgf_radius =     1    2    5     1.53283
nao2gto_transfer: isp, inlz, shell_radius =     1    2     3.00435     2.03573
nao2gto_transfer: isp, inlz, ipgf, pgf_radius =     1    3    1     8.70808
nao2gto_transfer: isp, inlz, ipgf, pgf_radius =     1    3    2     4.61954
nao2gto_transfer: isp, inlz, ipgf, pgf_radius =     1    3    3     3.30435
nao2gto_transfer: isp, inlz, ipgf, pgf_radius =     1    3    4     2.51294
nao2gto_transfer: isp, inlz, shell_radius =     1    3     8.70808     6.42962
nao2gto_transfer: isp, inlz, ipgf, pgf_radius =     1    4    1     4.32925
nao2gto_transfer: isp, inlz, ipgf, pgf_radius =     1    4    2     3.62850
nao2gto_transfer: isp, inlz, ipgf, pgf_radius =     1    4    3     3.04072
nao2gto_transfer: isp, inlz, ipgf, pgf_radius =     1    4    4     2.54777
nao2gto_transfer: isp, inlz, shell_radius =     1    4     4.32925     3.52857
nao2gto_transfer: isp, inlz, ipgf, pgf_radius =     1    5    1     5.71015
nao2gto_transfer: isp, inlz, ipgf, pgf_radius =     1    5    2     2.89611
nao2gto_transfer: isp, inlz, ipgf, pgf_radius =     1    5    3     2.40743
nao2gto_transfer: isp, inlz, ipgf, pgf_radius =     1    5    4     1.99995
nao2gto_transfer: isp, inlz, shell_radius =     1    5     5.71015     3.89969
nao2gto_transfer: isp, kind_radius =     1     8.70808

nao2gto_print_info: NAO2GTO fitting information -------------------------------

# %%% HYBRID XC FDF BEGIN

# XC parameters with a short-range EXX potential
XC.functional   GGA
XC.authors      HSE06

# The NAO2GTO block is structured as following:
#
#     species1 norbs_species1
#     n1 l1 zeta1 ngaussians_orbital1
#     exponent_gaussian1 coefficient_gaussian1
#     exponent_gaussian2 coefficient_gaussian2
#     exponent_gaussian3 coefficient_gaussian3
#     ...
#     n2 l2 zeta2 ngaussians_orbital2
#     exponent_gaussian1 coefficient_gaussian1
#     ...
#     species2 norbs_species2
#     ...
#
%block NAO2GTO
Si   5
3  0  1  5
    0.16303247E+00     0.63383670E+00
    0.72395647E+00     0.15046193E+01
    0.10135390E+01    -0.24932928E+01
    0.23816944E+01     0.10284758E+01
    0.33343721E+01    -0.39166455E+00
3  0  2  5
    0.10204082E+01     0.26922872E+01
    0.14285715E+01    -0.57983459E+01
    0.20000000E+01    -0.10201836E+02
    0.28000000E+01     0.16476430E+02
    0.39199999E+01    -0.57551709E+01
3  1  1  4
    0.15000000E+00     0.21382045E+00
    0.50330623E+00     0.44835493E+00
    0.95300463E+00    -0.31444340E+00
    0.16044378E+01     0.82939668E-01
3  1  2  4
    0.56960348E+00     0.39336859E+01
    0.79744486E+00    -0.57162678E+01
    0.11164228E+01     0.32400072E+01
    0.15629919E+01    -0.73843893E+00
3  2  1  4
    0.38934207E+00     0.46504665E+00
    0.13516736E+01     0.27829141E+00
    0.18923430E+01     0.85799466E+00
    0.26492802E+01    -0.44406486E+00
%endblock NAO2GTO

# Hartree-Fock exchange options
HFX.UseFittedNAOs                    T
HFX.TruncateDM                    T
HFX.DumpFitData                   T
HFX.FarField                      T
HFX.FitDataPoints               500
HFX.FarFieldTolerance     0.100E-05
HFX.PairListTolerance     0.100E-05
HFX.SchwarzTolerance      0.100E-05
HFX.StoreERIsTolerance    0.100E-05
HFX.Omega                 0.110E+00
HFX.MaximumNumberGaussians-S                  6
HFX.MaximumNumberGaussians-P                  5
HFX.MaximumNumberGaussians-D                  4
HFX.SeparationExponents                 0.140E+01
HFX.ToleranceFit                 0.100E-02
HFX.GaussianEPS                 0.100E-03
HFX.Dynamic_parallel                    F
HFX.FragSize               60000

# %%% HYBRID XC FDF END

nao2gto_print_info: END -------------------------------------------------------

Si   5
************************ End: HYBRID XC INITIALIZATION ************************

coor:   Atomic-coordinates input format  =     Fractional

siesta: Atomic coordinates (Bohr) and species
siesta:      0.00000   0.00000   0.00000  1        1
siesta:      0.00000   5.13061   5.13061  1        2
siesta:      5.13061   0.00000   5.13061  1        3
siesta:      5.13061   5.13061   0.00000  1        4
siesta:      7.69591   2.56530   7.69591  1        5
siesta:      2.56530   2.56530   2.56530  1        6
siesta:      2.56530   7.69591   7.69591  1        7
siesta:      7.69591   7.69591   2.56530  1        8
siesta:     10.26122   0.00000   0.00000  1        9
siesta:     10.26122   5.13061   5.13061  1       10
siesta:     15.39183   0.00000   5.13061  1       11
siesta:     15.39183   5.13061   0.00000  1       12
siesta:     17.95713   2.56530   7.69591  1       13
siesta:     12.82652   2.56530   2.56530  1       14
siesta:     12.82652   7.69591   7.69591  1       15
siesta:     17.95713   7.69591   2.56530  1       16
siesta:      0.00000  10.26122   0.00000  1       17
siesta:      0.00000  15.39183   5.13061  1       18
siesta:      5.13061  10.26122   5.13061  1       19
siesta:      5.13061  15.39183   0.00000  1       20
siesta:      7.69591  12.82652   7.69591  1       21
siesta:      2.56530  12.82652   2.56530  1       22
siesta:      2.56530  17.95713   7.69591  1       23
siesta:      7.69591  17.95713   2.56530  1       24
siesta:     10.26122  10.26122   0.00000  1       25
siesta:     10.26122  15.39183   5.13061  1       26
siesta:     15.39183  10.26122   5.13061  1       27
siesta:     15.39183  15.39183   0.00000  1       28
siesta:     17.95713  12.82652   7.69591  1       29
siesta:     12.82652  12.82652   2.56530  1       30
siesta:     12.82652  17.95713   7.69591  1       31
siesta:     17.95713  17.95713   2.56530  1       32
siesta:      0.00000   0.00000  10.26122  1       33
siesta:      0.00000   5.13061  15.39183  1       34
siesta:      5.13061   0.00000  15.39183  1       35
siesta:      5.13061   5.13061  10.26122  1       36
siesta:      7.69591   2.56530  17.95713  1       37
siesta:      2.56530   2.56530  12.82652  1       38
siesta:      2.56530   7.69591  17.95713  1       39
siesta:      7.69591   7.69591  12.82652  1       40
siesta:     10.26122   0.00000  10.26122  1       41
siesta:     10.26122   5.13061  15.39183  1       42
siesta:     15.39183   0.00000  15.39183  1       43
siesta:     15.39183   5.13061  10.26122  1       44
siesta:     17.95713   2.56530  17.95713  1       45
siesta:     12.82652   2.56530  12.82652  1       46
siesta:     12.82652   7.69591  17.95713  1       47
siesta:     17.95713   7.69591  12.82652  1       48
siesta:      0.00000  10.26122  10.26122  1       49
siesta:      0.00000  15.39183  15.39183  1       50
siesta:      5.13061  10.26122  15.39183  1       51
siesta:      5.13061  15.39183  10.26122  1       52
siesta:      7.69591  12.82652  17.95713  1       53
siesta:      2.56530  12.82652  12.82652  1       54
siesta:      2.56530  17.95713  17.95713  1       55
siesta:      7.69591  17.95713  12.82652  1       56
siesta:     10.26122  10.26122  10.26122  1       57
siesta:     10.26122  15.39183  15.39183  1       58
siesta:     15.39183  10.26122  15.39183  1       59
siesta:     15.39183  15.39183  10.26122  1       60
siesta:     17.95713  12.82652  17.95713  1       61
siesta:     12.82652  12.82652  12.82652  1       62
siesta:     12.82652  17.95713  17.95713  1       63
siesta:     17.95713  17.95713  12.82652  1       64

siesta: System type = bulk      

initatomlists: Number of atoms, orbitals, and projectors:     64   832  1024

siesta: ******************** Simulation parameters ****************************
siesta:
siesta: The following are some of the parameters of the simulation.
siesta: A complete list of the parameters used, including default values,
siesta: can be found in file out.fdf
siesta:
redata: Spin configuration                          = none
redata: Number of spin components                   = 1
redata: Time-Reversal Symmetry                      = T
redata: Spin spiral                                 = F
redata: Long output                                 =   F
redata: Number of Atomic Species                    =        1
redata: Charge density info will appear in .RHO file
redata: Write Mulliken Pop.                         = NO
redata: Matel table size (NRTAB)                    =     1024
redata: Mesh Cutoff                                 =   250.0000 Ry
redata: Net charge of the system                    =     0.0000 |e|
redata: Min. number of SCF Iter                     =        0
redata: Max. number of SCF Iter                     =       50
redata: SCF convergence failure will abort job
redata: SCF mix quantity                            = Hamiltonian
redata: Mix DM or H after convergence               =   F
redata: Recompute H after scf cycle                 =   F
redata: Mix DM in first SCF step                    =   T
redata: Write Pulay info on disk                    =   F
redata: New DM Occupancy tolerance                  = 0.000000000001
redata: No kicks to SCF
redata: DM Mixing Weight for Kicks                  =     0.5000
redata: Require Harris convergence for SCF          =   F
redata: Harris energy tolerance for SCF             =     0.000100 eV
redata: Require DM convergence for SCF              =   T
redata: DM tolerance for SCF                        =     0.000100
redata: Require EDM convergence for SCF             =   F
redata: EDM tolerance for SCF                       =     0.001000 eV
redata: Require H convergence for SCF               =   T
redata: Hamiltonian tolerance for SCF               =     0.001000 eV
redata: Require (free) Energy convergence for SCF   =   F
redata: (free) Energy tolerance for SCF             =     0.000100 eV
redata: Using Saved Data (generic)                  =   F
redata: Use continuation files for DM               =   F
redata: Neglect nonoverlap interactions             =   F
redata: Method of Calculation                       = Diagonalization
redata: Electronic Temperature                      =   290.1109 K
redata: Fix the spin of the system                  =   F
redata: Dynamics option                             = Single-point calculation
mix.SCF: Pulay mixing                            = Pulay
mix.SCF:    Variant                              = stable
mix.SCF:    History steps                        = 6
mix.SCF:    Linear mixing weight                 =     0.200000
mix.SCF:    Mixing weight                        =     0.200000
mix.SCF:    SVD condition                        = 0.1000E-07
redata: ***********************************************************************

%block SCF.Mixers
  Pulay
%endblock SCF.Mixers

%block SCF.Mixer.Pulay
  # Mixing method
  method pulay
  variant stable

  # Mixing options
  weight 0.2000
  weight.linear 0.2000
  history 6
%endblock SCF.Mixer.Pulay
 
DM_history_depth set to one: no extrapolation allowed by default for geometry relaxation
Size of DM history Fstack: 1
Total number of electrons:   256.000000
Total ionic charge:   256.000000

* ProcessorY, Blocksize:    8   6


* Orbital distribution balance (max,min):    12     6

 Kpoints in:            1 . Kpoints trimmed:            1

siesta: k-grid: Number of k-points =     1
siesta: k-grid: Cutoff (effective) =     5.430 Ang
siesta: k-grid: Supercell and displacements
siesta: k-grid:    1   0   0      0.000
siesta: k-grid:    0   1   0      0.000
siesta: k-grid:    0   0   1      0.000
 
diag: Algorithm                                     = D&C
diag: Parallel over k                               =   F
diag: Use parallel 2D distribution                  =   T
diag: Parallel block-size                           = 6
diag: Parallel distribution                         =     8 x    16
diag: Used triangular part                          = Lower
diag: Absolute tolerance                            =  0.100E-15
diag: Orthogonalization factor                      =  0.100E-05
diag: Memory factor                                 =  1.0000
 
 
ts: **************************************************************
ts: Save H and S matrices                           =    F
ts: Save DM and EDM matrices                        =    F
ts: Only save the overlap matrix S                  =    F
ts: **************************************************************
 
************************ Begin: TS CHECKS AND WARNINGS ************************
************************ End: TS CHECKS AND WARNINGS **************************


                     ====================================
                        Single-point calculation
                     ====================================

outcoor: Atomic coordinates (fractional):                   
    0.00000000    0.00000000    0.00000000   1       1  Si
    0.00000000    0.25000000    0.25000000   1       2  Si
    0.25000000    0.00000000    0.25000000   1       3  Si
    0.25000000    0.25000000    0.00000000   1       4  Si
    0.37500000    0.12500000    0.37500000   1       5  Si
    0.12500000    0.12500000    0.12500000   1       6  Si
    0.12500000    0.37500000    0.37500000   1       7  Si
    0.37500000    0.37500000    0.12500000   1       8  Si
    0.50000000    0.00000000    0.00000000   1       9  Si
    0.50000000    0.25000000    0.25000000   1      10  Si
    0.75000000    0.00000000    0.25000000   1      11  Si
    0.75000000    0.25000000    0.00000000   1      12  Si
    0.87500000    0.12500000    0.37500000   1      13  Si
    0.62500000    0.12500000    0.12500000   1      14  Si
    0.62500000    0.37500000    0.37500000   1      15  Si
    0.87500000    0.37500000    0.12500000   1      16  Si
    0.00000000    0.50000000    0.00000000   1      17  Si
    0.00000000    0.75000000    0.25000000   1      18  Si
    0.25000000    0.50000000    0.25000000   1      19  Si
    0.25000000    0.75000000    0.00000000   1      20  Si
    0.37500000    0.62500000    0.37500000   1      21  Si
    0.12500000    0.62500000    0.12500000   1      22  Si
    0.12500000    0.87500000    0.37500000   1      23  Si
    0.37500000    0.87500000    0.12500000   1      24  Si
    0.50000000    0.50000000    0.00000000   1      25  Si
    0.50000000    0.75000000    0.25000000   1      26  Si
    0.75000000    0.50000000    0.25000000   1      27  Si
    0.75000000    0.75000000    0.00000000   1      28  Si
    0.87500000    0.62500000    0.37500000   1      29  Si
    0.62500000    0.62500000    0.12500000   1      30  Si
    0.62500000    0.87500000    0.37500000   1      31  Si
    0.87500000    0.87500000    0.12500000   1      32  Si
    0.00000000    0.00000000    0.50000000   1      33  Si
    0.00000000    0.25000000    0.75000000   1      34  Si
    0.25000000    0.00000000    0.75000000   1      35  Si
    0.25000000    0.25000000    0.50000000   1      36  Si
    0.37500000    0.12500000    0.87500000   1      37  Si
    0.12500000    0.12500000    0.62500000   1      38  Si
    0.12500000    0.37500000    0.87500000   1      39  Si
    0.37500000    0.37500000    0.62500000   1      40  Si
    0.50000000    0.00000000    0.50000000   1      41  Si
    0.50000000    0.25000000    0.75000000   1      42  Si
    0.75000000    0.00000000    0.75000000   1      43  Si
    0.75000000    0.25000000    0.50000000   1      44  Si
    0.87500000    0.12500000    0.87500000   1      45  Si
    0.62500000    0.12500000    0.62500000   1      46  Si
    0.62500000    0.37500000    0.87500000   1      47  Si
    0.87500000    0.37500000    0.62500000   1      48  Si
    0.00000000    0.50000000    0.50000000   1      49  Si
    0.00000000    0.75000000    0.75000000   1      50  Si
    0.25000000    0.50000000    0.75000000   1      51  Si
    0.25000000    0.75000000    0.50000000   1      52  Si
    0.37500000    0.62500000    0.87500000   1      53  Si
    0.12500000    0.62500000    0.62500000   1      54  Si
    0.12500000    0.87500000    0.87500000   1      55  Si
    0.37500000    0.87500000    0.62500000   1      56  Si
    0.50000000    0.50000000    0.50000000   1      57  Si
    0.50000000    0.75000000    0.75000000   1      58  Si
    0.75000000    0.50000000    0.75000000   1      59  Si
    0.75000000    0.75000000    0.50000000   1      60  Si
    0.87500000    0.62500000    0.87500000   1      61  Si
    0.62500000    0.62500000    0.62500000   1      62  Si
    0.62500000    0.87500000    0.87500000   1      63  Si
    0.87500000    0.87500000    0.62500000   1      64  Si

outcell: Unit cell vectors (Ang):
       10.860000    0.000000    0.000000
        0.000000   10.860000    0.000000
        0.000000    0.000000   10.860000

outcell: Cell vector modules (Ang)   :   10.860000   10.860000   10.860000
outcell: Cell angles (23,13,12) (deg):     90.0000     90.0000     90.0000
outcell: Cell volume (Ang**3)        :   1280.8241
Gamma-point calculation with interaction between periodic images
Some features might not work optimally:
e.g. DM initialization from atomic data
<dSpData1D:S at geom step 0
  <sparsity:sparsity for geom step 0
    nrows_g=832 nrows=12 sparsity=.0117 nnzs=8130, refcount: 7>
  <dData1D:(new from dSpData1D) n=8130, refcount: 1>
refcount: 1>
new_DM -- step:     1
Initializing Density Matrix...
DM filled with atomic data:
<dSpData2D:DM initialized from atoms
  <sparsity:sparsity for geom step 0
    nrows_g=832 nrows=12 sparsity=.0117 nnzs=8130, refcount: 8>
  <dData2D:DM n=8130 m=1, refcount: 1>
refcount: 1>
calc_prescreen_eri: max_eri_prescreen      0.15112031E+01
init_prescreen_eri: nelem_ij =          832
init_prescreen_eri: nelem_kl =          832
init_prescreen_eri: list_ij  :        27872
init_prescreen_eri: list_kl  :        27872
init_prescreen_eri: max_eri =         0.151120E+01
No. of atoms with KB's overlaping orbs in proc 0. Max # of overlaps:      52     239

InitMesh: MESH =   108 x   108 x   108 =     1259712
InitMesh: (bp) =    54 x    54 x    54 =      157464
InitMesh: Mesh cutoff (required, used) =   250.000   273.331 Ry
ExtMesh (bp) on 0 =   146 x    99 x    96 =     1387584
Setting up quadratic distribution...
ExtMesh (bp) on 0 =   106 x   106 x    99 =     1112364
PhiOnMesh: Number of (b)points on node 0 =                 1372
PhiOnMesh: nlist on node 0 =               162447
setup_hfx: call #0001
 setup_hfx: HFX energy:       -370.086117  eV

stepf: Fermi-Dirac step function
setup_hfx: call #0002
 setup_hfx: HFX energy:       -359.659411  eV

siesta: Program's energy decomposition (eV):
siesta: Ebs     =     -2401.905870
siesta: Eions   =     11953.169472
siesta: Ena     =      3398.747926
siesta: Ekin    =      2655.590761
siesta: Enl     =       890.304317
siesta: Eso     =         0.000000
siesta: Edftu   =         0.000000
siesta: DEna    =       250.557737
siesta: DUscf   =        11.609499
siesta: DUext   =         0.000000
siesta: Exc     =     -2097.074544
siesta: eta*DQ  =         0.000000
siesta: Emadel  =         0.000000
siesta: Emeta   =         0.000000
siesta: Emolmec =         0.000000
siesta: Ekinion =         0.000000
siesta: Eharris =     -6932.482468
siesta: Etot    =     -6843.433776
siesta: FreeEng =     -6843.433776

        iscf     Eharris(eV)        E_KS(eV)     FreeEng(eV)     dDmax    Ef(eV) dHmax(eV)
   scf:    1    -6932.482468    -6843.433776    -6843.433776  0.940484 -2.596609  0.331276
timer: Routine,Calls,Time,% = IterSCF        1      54.506  57.97
setup_hfx: call #0003
 setup_hfx: HFX energy:       -360.256837  eV
   scf:    2    -6844.279252    -6843.855710    -6843.855710  0.010422 -2.656296  0.278304
setup_hfx: call #0004
 setup_hfx: HFX energy:       -362.426771  eV
   scf:    3    -6845.430358    -6844.628443    -6844.628443  0.039061 -2.651340  0.112118
setup_hfx: call #0005
 setup_hfx: HFX energy:       -362.574178  eV
   scf:    4    -6844.664360    -6844.646351    -6844.646351  0.009484 -2.564731  0.006632
setup_hfx: call #0006
 setup_hfx: HFX energy:       -362.582019  eV
   scf:    5    -6844.646428    -6844.646372    -6844.646372  0.000310 -2.562781  0.003680
setup_hfx: call #0007
 setup_hfx: HFX energy:       -362.590160  eV
   scf:    6    -6844.646318    -6844.646300    -6844.646300  0.000218 -2.565733  0.000168
setup_hfx: call #0008
 setup_hfx: HFX energy:       -362.590177  eV
   scf:    7    -6844.646302    -6844.646302    -6844.646302  0.000005 -2.565878  0.000073

SCF Convergence by DM+H criterion
max |DM_out - DM_in|         :     0.0000052384
max |H_out - H_in|      (eV) :     0.0000731789
SCF cycle converged after 7 iterations

Using DM_out to compute the final energy and forces
No. of atoms with KB's overlaping orbs in proc 0. Max # of overlaps:      52     239
setup_hfx: call #0009
 setup_hfx: HFX energy:       -362.590177  eV

siesta: E_KS(eV) =            -6844.6463

siesta: E_KS - E_eggbox =     -6844.6463

siesta: Atomic forces (eV/Ang):
     1   -0.001485   -0.001466   -0.001432
     2   -0.001441   -0.001580   -0.001585
     3   -0.001564   -0.001464   -0.001591
     4   -0.001557   -0.001606   -0.001484
     5   -0.001335   -0.001375   -0.001356
     6   -0.001485   -0.001482   -0.001484
     7   -0.001370   -0.001339   -0.001361
     8   -0.001362   -0.001353   -0.001384
     9    0.001382   -0.001331   -0.001336
    10    0.001407   -0.001454   -0.001456
    11    0.001572   -0.001361   -0.001521
    12    0.001594   -0.001527   -0.001391
    13    0.001404   -0.001531   -0.001381
    14    0.001473   -0.001557   -0.001551
    15    0.001494   -0.001353   -0.001394
    16    0.001374   -0.001374   -0.001549
    17   -0.001389    0.001383   -0.001347
    18   -0.001363    0.001549   -0.001515
    19   -0.001446    0.001441   -0.001469
    20   -0.001533    0.001573   -0.001384
    21   -0.001366    0.001494   -0.001391
    22   -0.001550    0.001437   -0.001507
    23   -0.001540    0.001392   -0.001391
    24   -0.001378    0.001392   -0.001555
    25    0.001449    0.001452   -0.001493
    26    0.001360    0.001606   -0.001537
    27    0.001623    0.001383   -0.001507
    28    0.001657    0.001654   -0.001415
    29    0.001312    0.001427   -0.001358
    30    0.001477    0.001473   -0.001479
    31    0.001407    0.001304   -0.001357
    32    0.001321    0.001334   -0.001507
    33   -0.001385   -0.001376    0.001371
    34   -0.001363   -0.001505    0.001570
    35   -0.001522   -0.001357    0.001563
    36   -0.001452   -0.001447    0.001485
    37   -0.001373   -0.001547    0.001376
    38   -0.001536   -0.001571    0.001428
    39   -0.001546   -0.001379    0.001424
    40   -0.001382   -0.001390    0.001436
    41    0.001435   -0.001480    0.001457
    42    0.001388   -0.001500    0.001627
    43    0.001653   -0.001409    0.001663
    44    0.001599   -0.001530    0.001401
    45    0.001299   -0.001508    0.001294
    46    0.001491   -0.001502    0.001505
    47    0.001373   -0.001360    0.001325
    48    0.001313   -0.001345    0.001397
    49   -0.001501    0.001431    0.001452
    50   -0.001428    0.001672    0.001657
    51   -0.001494    0.001395    0.001607
    52   -0.001508    0.001612    0.001407
    53   -0.001324    0.001380    0.001349
    54   -0.001523    0.001467    0.001471
    55   -0.001506    0.001308    0.001327
    56   -0.001337    0.001333    0.001361
    57    0.001337    0.001328    0.001347
    58    0.001435    0.001488    0.001490
    59    0.001508    0.001434    0.001504
    60    0.001509    0.001491    0.001438
    61    0.001399    0.001597    0.001409
    62    0.001466    0.001460    0.001462
    63    0.001614    0.001404    0.001425
    64    0.001398    0.001414    0.001610
----------------------------------------
   Tot    0.000181    0.000151    0.000166
----------------------------------------
   Max    0.001672
   Res    0.001455    sqrt( Sum f_i^2 / 3N )
----------------------------------------
   Max    0.001672    constrained

Stress tensor Voigt[x,y,z,yz,xz,xy] (kbar):     -287.74     -287.74     -287.74       -0.00       -0.00       -0.00
(Free)E + p*V (eV/cell)    -6614.6234
Target enthalpy (eV/cell)    -6844.6463

siesta: Program's energy decomposition (eV):
siesta: Ebs     =     -2393.569154
siesta: Eions   =     11953.169472
siesta: Ena     =      3398.747926
siesta: Ekin    =      2680.932382
siesta: Enl     =       876.700548
siesta: Eso     =         0.000000
siesta: Edftu   =         0.000000
siesta: DEna    =       243.613774
siesta: DUscf   =        13.035146
siesta: DUext   =         0.000000
siesta: Exc     =     -2104.506606
siesta: eta*DQ  =         0.000000
siesta: Emadel  =         0.000000
siesta: Emeta   =         0.000000
siesta: Emolmec =         0.000000
siesta: Ekinion =         0.000000
siesta: Eharris =     -6844.646302
siesta: Etot    =     -6844.646302
siesta: FreeEng =     -6844.646302

siesta: Final energy (eV):
siesta:  Band Struct. =   -2393.569154
siesta:       Kinetic =    2680.932382
siesta:       Hartree =     490.162265
siesta:       Edftu   =       0.000000
siesta:       Eso     =       0.000000
siesta:    Ext. field =       0.000000
siesta:   Exch.-corr. =   -2104.506606
siesta:  Ion-electron =   -3098.549198
siesta:       Ion-ion =   -4812.685145
siesta:       Ekinion =       0.000000
siesta:         Total =   -6844.646302
siesta:         Fermi =      -2.565878

siesta: Stress tensor (static) (eV/Ang**3):
siesta:    -0.179590   -0.000000   -0.000000
siesta:    -0.000000   -0.179590   -0.000000
siesta:    -0.000000   -0.000000   -0.179589

siesta: Cell volume =       1280.824056 Ang**3

siesta: Pressure (static):
siesta:                Solid            Molecule  Units
siesta:           0.00195596          0.00195381  Ry/Bohr**3
siesta:           0.17958979          0.17939233  eV/Ang**3
siesta:         287.73767145        287.42130064  kBar
(Free)E+ p_basis*V_orbitals  =       -6776.242912
(Free)Eharris+ p_basis*V_orbitals  =       -6776.242912

cite: Please see "Sibulk.bib" for an exhaustive BiBTeX file.
cite: Please clearly indicate Siesta version in published work: 4.1.5
cite: This calculation has made use of the following articles
cite: which are encouraged to be cited in a published work.
        Primary SIESTA paper
          DOI: www.doi.org/10.1088/0953-8984/14/11/302
 
>> End of run:  18-JUN-2025   9:39:36
Job completed
Siesta Version  : 4.1.5
Architecture    : x86_64-intel
Compiler version: ifort (IFORT) 19.1.3.304 20200925
Compiler flags  : mpiifort -O2 -g -fPIC -fp-model source
PP flags        : -DMPI -DFC_HAVE_ABORT -DHAVE_LIBINT
Libraries       :  -L/public/software/compiler/intel/2020.update4/compilers_and_libraries_2020..4.304/linux/mkl/lib/intel64 -lmkl_intel_lp64 -lmkl_core -lmkl_sequential -lmkl_scalapack_lp64 -lmkl_blacs_intelmpi_lp64 /public/home/xmqin/MathLibs/libint/1.1.5/intel/lib/libderiv.a /public/home/xmqin/MathLibs/libint/1.1.5/intel/lib/libint.a -lpthread -lstdc++
PARALLEL version

* Running on 128 nodes in parallel
>> Start of run:  18-JUN-2025   9:39:43

                           ***********************       
                           *  WELCOME TO SIESTA  *       
                           ***********************       

reinit: Reading from standard input
reinit: Dumped input in INPUT_TMP.31095
************************** Dump of input data file ****************************
SystemName      Bulk Silisin
SystemLabel     Sibulk
NumberOfSpecies	        1
%block ChemicalSpeciesLabel
  1  14  Si
%endblock ChemicalSpeciesLabel
NumberOfAtoms           8
LatticeConstant      5.430 Ang
%block LatticeVectors
  1.00  0.00  0.00
  0.00  1.00  0.00
  0.00  0.00  1.00
%endblock LatticeVectors
AtomicCoordinatesFormat   Fractional
%block AtomicCoordinatesAndAtomicSpecies
  0.00000000000000  0.00000000000000  0.00000000000000  1
  0.00000000000000  0.50000000000000  0.50000000000000  1
  0.50000000000000  0.00000000000000  0.50000000000000  1
  0.50000000000000  0.50000000000000  0.00000000000000  1
  0.75000000000000  0.25000000000000  0.75000000000000  1
  0.25000000000000  0.25000000000000  0.25000000000000  1
  0.25000000000000  0.75000000000000  0.75000000000000  1
  0.75000000000000  0.75000000000000  0.25000000000000  1
%endblock AtomicCoordinatesAndAtomicSpecies
%block Supercell
   2   0   0
   0   2   0
   0   0   4
%endblock Supercell
kgrid.Cutoff 0. Bohr
%block PAO.Basis
Si     3    0.5564780
 n=3    0    2   E    129.4991135  5.4983922
   5.6841605               2.0421107
   1.00000000000000        1.00000000000000
 n=3    1    2   E    81.8582336   5.9078004
   6.439786                3.5339345
   1.00000000000000        1.00000000000000
 n=3    2    1   E    14.1744519   2.3574667
   3.9159002
   1.00000000000000
%endblock PAO.Basis
%block NAO2GTO
Si   5
3  0  1  5
    0.16303247E+00     0.63383670E+00
    0.72395647E+00     0.15046193E+01
    0.10135390E+01    -0.24932928E+01
    0.23816944E+01     0.10284758E+01
    0.33343721E+01    -0.39166455E+00
3  0  2  5
    0.10204082E+01     0.26922872E+01
    0.14285715E+01    -0.57983459E+01
    0.20000000E+01    -0.10201836E+02
    0.28000000E+01     0.16476430E+02
    0.39199999E+01    -0.57551709E+01
3  1  1  4
    0.15000000E+00     0.21382045E+00
    0.50330623E+00     0.44835493E+00
    0.95300463E+00    -0.31444340E+00
    0.16044378E+01     0.82939668E-01
3  1  2  4
    0.56960348E+00     0.39336859E+01
    0.79744486E+00    -0.57162678E+01
    0.11164228E+01     0.32400072E+01
    0.15629919E+01    -0.73843893E+00
3  2  1  4
    0.38934207E+00     0.46504665E+00
    0.13516736E+01     0.27829141E+00
    0.18923430E+01     0.85799466E+00
    0.26492802E+01    -0.44406486E+00
%endblock NAO2GTO
xc.functional      GGA    # Default vaxc.authors         HSE    # Default value
xc.authors        HSE06    # Default value
ElectronicTemperature  25 meV
#DM.UseSaveDM            T
MeshCutoff              250. Ry     # Equivalent planewave cutoff for the grid
MaxSCFIterations        50         # Maximum number of SCF iterations per step
DM.MixingWeight         0.2         # New DM amount for next SCF cycle
DM.Tolerance            1.d-4       # Tolerance in maximum difference
                                    # between input and output DM
DM.NumberPulay          6          # Number of SCF steps between pulay mixing
# Eigenvalue problem: order-N or diagonalization
SolutionMethod          diagon      # OrderN or Diagon
MD.TypeOfRun            cg          # Type of dynamics:
MD.NumCGsteps  0
#MD.VariableCell   .true.
MD.MaxForceTol  0.01 eV/Ang
#WriteMDXmol   .true.
WriteForces  .true.
WriteCoorStep
HFX.UseFittedNAOs  .true.
HFX.Dynamic_parallel .false.
HFX.FragSize 60000
************************** End of input data file *****************************

reinit: -----------------------------------------------------------------------
reinit: System Name: Bulk Silisin
reinit: -----------------------------------------------------------------------
reinit: System Label: Sibulk
reinit: -----------------------------------------------------------------------

initatom: Reading input for the pseudopotentials and atomic orbitals ----------
Species number:   1 Atomic number:   14 Label: Si
 
Ground state valence configuration:   3s02  3p02
Reading pseudopotential information in formatted form from Si.psf

Valence configuration for pseudopotential generation:
3s( 2.00) rc: 1.89
3p( 2.00) rc: 1.89
3d( 0.00) rc: 1.89
4f( 0.00) rc: 1.89
For Si, standard SIESTA heuristics set lmxkb to 3
 (one more than the basis l, including polarization orbitals).
Use PS.lmax or PS.KBprojectors blocks to override.

<basis_specs>
===============================================================================
Si                   Z=  14    Mass=  28.090        Charge= 0.55648    
Lmxo=2 Lmxkb= 3    BasisType=split      Semic=F
L=0  Nsemic=0  Cnfigmx=3
          i=1  nzeta=2  polorb=0  (3s)
            splnorm:   0.15000    
               vcte:    129.50    
               rinn:    5.4984    
               qcoe:    0.0000    
               qyuk:    0.0000    
               qwid:   0.10000E-01
                rcs:    5.6842      2.0421    
            lambdas:    1.0000      1.0000    
L=1  Nsemic=0  Cnfigmx=3
          i=1  nzeta=2  polorb=0  (3p)
            splnorm:   0.15000    
               vcte:    81.858    
               rinn:    5.9078    
               qcoe:    0.0000    
               qyuk:    0.0000    
               qwid:   0.10000E-01
                rcs:    6.4398      3.5339    
            lambdas:    1.0000      1.0000    
L=2  Nsemic=0  Cnfigmx=3
          i=1  nzeta=1  polorb=0  (3d)
            splnorm:   0.15000    
               vcte:    14.174    
               rinn:    2.3575    
               qcoe:    0.0000    
               qyuk:    0.0000    
               qwid:   0.10000E-01
                rcs:    3.9159    
            lambdas:    1.0000    
-------------------------------------------------------------------------------
L=0  Nkbl=1  erefs: 0.17977+309
L=1  Nkbl=1  erefs: 0.17977+309
L=2  Nkbl=1  erefs: 0.17977+309
L=3  Nkbl=1  erefs: 0.17977+309
===============================================================================
</basis_specs>

atom: Called for Si                    (Z =  14)

read_vps: Pseudopotential generation method:
read_vps: ATM3      Troullier-Martins                       
Valence charge for ps generation:    4.00000

xc_check: Exchange-correlation functional:
xc_check: Hybrid Heyd-Scuseria-Ernzerhof 2006
 (JCP 125, 224106, 2006)
xc_check: WARNING: Pseudopotential generated with GGA PBE functional
V l=0 = -2*Zval/r beyond r=  2.7826
V l=1 = -2*Zval/r beyond r=  2.7826
V l=2 = -2*Zval/r beyond r=  2.7826
V l=3 = -2*Zval/r beyond r=  2.7826
All V_l potentials equal beyond r=  1.8652
This should be close to max(r_c) in ps generation
All pots = -2*Zval/r beyond r=  2.7826
Using large-core scheme for Vlocal

atom: Estimated core radius    2.78258

atom: Including non-local core corrections could be a good idea
atom: Maximum radius for 4*pi*r*r*local-pseudopot. charge    3.07525
atom: Maximum radius for r*vlocal+2*Zval:    2.81758
GHOST: No ghost state for L =  0
GHOST: No ghost state for L =  1
GHOST: No ghost state for L =  2
GHOST: No ghost state for L =  3

KBgen: Kleinman-Bylander projectors: 
   l= 0   rc=  1.936440   el= -0.791474   Ekb=  4.527346   kbcos=  0.300929
   l= 1   rc=  1.936440   el= -0.300649   Ekb=  1.471620   kbcos=  0.304055
   l= 2   rc=  1.936440   el=  0.001958   Ekb= -2.865202   kbcos= -0.050894
   l= 3   rc=  1.936440   el=  0.003046   Ekb= -0.889187   kbcos= -0.005274

KBgen: Total number of Kleinman-Bylander projectors:   16
atom: -------------------------------------------------------------------------

atom: SANKEY-TYPE ORBITALS:
atom: Selected multiple-zeta basis: split     

atom: basis set generated (by rescaling the valence charge)
atom: for a cation of charge   0.5565

SPLIT: Orbitals with angular momentum L= 0

SPLIT: Basis orbitals for state 3s

   izeta = 1
                 lambda =    1.000000
                     rc =    5.674097
                 energy =   -1.193786
                kinetic =    0.571580
    potential(screened) =   -1.765366
       potential(ionic) =   -3.820386

   izeta = 2
                 rmatch =    2.035732
              splitnorm =    1.097306
                 energy =    5.434304
                kinetic =    4.530235
    potential(screened) =    0.904069
       potential(ionic) =   -1.842010

SPLIT: Orbitals with angular momentum L= 1

SPLIT: Basis orbitals for state 3p

   izeta = 1
                 lambda =    1.000000
                     rc =    6.429618
                 energy =   -0.660481
                kinetic =    0.968387
    potential(screened) =   -1.628868
       potential(ionic) =   -3.553429

   izeta = 2
                 rmatch =    3.528569
              splitnorm =    0.437886
                 energy =   -0.224636
                kinetic =    2.046251
    potential(screened) =   -2.270887
       potential(ionic) =   -4.455596

SPLIT: Orbitals with angular momentum L= 2

SPLIT: Basis orbitals for state 3d

   izeta = 1
                 lambda =    1.000000
                     rc =    3.899691
                 energy =    0.499133
                kinetic =    3.167061
    potential(screened) =   -2.667928
       potential(ionic) =   -4.768972
atom: Total number of Sankey-type orbitals: 13

atm_pop: Valence configuration (for local Pseudopot. screening):
 3s( 2.00)                                                            
 3p( 2.00)                                                            
 3d( 0.00)                                                            
Vna: chval, zval:    4.00000   4.00000

Vna:  Cut-off radius for the neutral-atom potential:   6.429618

atom: _________________________________________________________________________

prinput: Basis input ----------------------------------------------------------

PAO.BasisType split     

%block ChemicalSpeciesLabel
    1   14 Si                      # Species index, atomic number, species label
%endblock ChemicalSpeciesLabel

%block PAO.Basis                 # Define Basis set
Si                    3   0.556            # Label, l-shells, ionic net charge
 n=3   0   2                         # n, l, Nzeta 
   5.674      2.036   
   1.000      1.000   
 n=3   1   2                         # n, l, Nzeta 
   6.430      3.529   
   1.000      1.000   
 n=3   2   1                         # n, l, Nzeta 
   3.900   
   1.000   
%endblock PAO.Basis

prinput: ----------------------------------------------------------------------

************************ Begin: HYBRID XC INITIALIZATION **********************

nao2gto_transfer: isp, inlz, ipgf, pgf_radius =     1    1    1     7.51624
nao2gto_transfer: isp, inlz, ipgf, pgf_radius =     1    1    2     3.56682
nao2gto_transfer: isp, inlz, ipgf, pgf_radius =     1    1    3     3.01452
nao2gto_transfer: isp, inlz, ipgf, pgf_radius =     1    1    4     1.96650
nao2gto_transfer: isp, inlz, ipgf, pgf_radius =     1    1    5     1.66200
nao2gto_transfer: isp, inlz, shell_radius =     1    1     7.51624     5.67410
nao2gto_transfer: isp, inlz, ipgf, pgf_radius =     1    2    1     3.00435
nao2gto_transfer: isp, inlz, ipgf, pgf_radius =     1    2    2     2.53914
nao2gto_transfer: isp, inlz, ipgf, pgf_radius =     1    2    3     2.14597
nao2gto_transfer: isp, inlz, ipgf, pgf_radius =     1    2    4     1.81367
nao2gto_transfer: isp, inlz, ipgf, pgf_radius =     1    2    5     1.53283
nao2gto_transfer: isp, inlz, shell_radius =     1    2     3.00435     2.03573
nao2gto_transfer: isp, inlz, ipgf, pgf_radius =     1    3    1     8.70808
nao2gto_transfer: isp, inlz, ipgf, pgf_radius =     1    3    2     4.61954
nao2gto_transfer: isp, inlz, ipgf, pgf_radius =     1    3    3     3.30435
nao2gto_transfer: isp, inlz, ipgf, pgf_radius =     1    3    4     2.51294
nao2gto_transfer: isp, inlz, shell_radius =     1    3     8.70808     6.42962
nao2gto_transfer: isp, inlz, ipgf, pgf_radius =     1    4    1     4.32925
nao2gto_transfer: isp, inlz, ipgf, pgf_radius =     1    4    2     3.62850
nao2gto_transfer: isp, inlz, ipgf, pgf_radius =     1    4    3     3.04072
nao2gto_transfer: isp, inlz, ipgf, pgf_radius =     1    4    4     2.54777
nao2gto_transfer: isp, inlz, shell_radius =     1    4     4.32925     3.52857
nao2gto_transfer: isp, inlz, ipgf, pgf_radius =     1    5    1     5.71015
nao2gto_transfer: isp, inlz, ipgf, pgf_radius =     1    5    2     2.89611
nao2gto_transfer: isp, inlz, ipgf, pgf_radius =     1    5    3     2.40743
nao2gto_transfer: isp, inlz, ipgf, pgf_radius =     1    5    4     1.99995
nao2gto_transfer: isp, inlz, shell_radius =     1    5     5.71015     3.89969
nao2gto_transfer: isp, kind_radius =     1     8.70808

nao2gto_print_info: NAO2GTO fitting information -------------------------------

# %%% HYBRID XC FDF BEGIN

# XC parameters with a short-range EXX potential
XC.functional   GGA
XC.authors      HSE06

# The NAO2GTO block is structured as following:
#
#     species1 norbs_species1
#     n1 l1 zeta1 ngaussians_orbital1
#     exponent_gaussian1 coefficient_gaussian1
#     exponent_gaussian2 coefficient_gaussian2
#     exponent_gaussian3 coefficient_gaussian3
#     ...
#     n2 l2 zeta2 ngaussians_orbital2
#     exponent_gaussian1 coefficient_gaussian1
#     ...
#     species2 norbs_species2
#     ...
#
%block NAO2GTO
Si   5
3  0  1  5
    0.16303247E+00     0.63383670E+00
    0.72395647E+00     0.15046193E+01
    0.10135390E+01    -0.24932928E+01
    0.23816944E+01     0.10284758E+01
    0.33343721E+01    -0.39166455E+00
3  0  2  5
    0.10204082E+01     0.26922872E+01
    0.14285715E+01    -0.57983459E+01
    0.20000000E+01    -0.10201836E+02
    0.28000000E+01     0.16476430E+02
    0.39199999E+01    -0.57551709E+01
3  1  1  4
    0.15000000E+00     0.21382045E+00
    0.50330623E+00     0.44835493E+00
    0.95300463E+00    -0.31444340E+00
    0.16044378E+01     0.82939668E-01
3  1  2  4
    0.56960348E+00     0.39336859E+01
    0.79744486E+00    -0.57162678E+01
    0.11164228E+01     0.32400072E+01
    0.15629919E+01    -0.73843893E+00
3  2  1  4
    0.38934207E+00     0.46504665E+00
    0.13516736E+01     0.27829141E+00
    0.18923430E+01     0.85799466E+00
    0.26492802E+01    -0.44406486E+00
%endblock NAO2GTO

# Hartree-Fock exchange options
HFX.UseFittedNAOs                    T
HFX.TruncateDM                    T
HFX.DumpFitData                   T
HFX.FarField                      T
HFX.FitDataPoints               500
HFX.FarFieldTolerance     0.100E-05
HFX.PairListTolerance     0.100E-05
HFX.SchwarzTolerance      0.100E-05
HFX.StoreERIsTolerance    0.100E-05
HFX.Omega                 0.110E+00
HFX.MaximumNumberGaussians-S                  6
HFX.MaximumNumberGaussians-P                  5
HFX.MaximumNumberGaussians-D                  4
HFX.SeparationExponents                 0.140E+01
HFX.ToleranceFit                 0.100E-02
HFX.GaussianEPS                 0.100E-03
HFX.Dynamic_parallel                    F
HFX.FragSize               60000

# %%% HYBRID XC FDF END

nao2gto_print_info: END -------------------------------------------------------

Si   5
************************ End: HYBRID XC INITIALIZATION ************************

coor:   Atomic-coordinates input format  =     Fractional

siesta: Atomic coordinates (Bohr) and species
siesta:      0.00000   0.00000   0.00000  1        1
siesta:      0.00000   5.13061   5.13061  1        2
siesta:      5.13061   0.00000   5.13061  1        3
siesta:      5.13061   5.13061   0.00000  1        4
siesta:      7.69591   2.56530   7.69591  1        5
siesta:      2.56530   2.56530   2.56530  1        6
siesta:      2.56530   7.69591   7.69591  1        7
siesta:      7.69591   7.69591   2.56530  1        8
siesta:     10.26122   0.00000   0.00000  1        9
siesta:     10.26122   5.13061   5.13061  1       10
siesta:     15.39183   0.00000   5.13061  1       11
siesta:     15.39183   5.13061   0.00000  1       12
siesta:     17.95713   2.56530   7.69591  1       13
siesta:     12.82652   2.56530   2.56530  1       14
siesta:     12.82652   7.69591   7.69591  1       15
siesta:     17.95713   7.69591   2.56530  1       16
siesta:      0.00000  10.26122   0.00000  1       17
siesta:      0.00000  15.39183   5.13061  1       18
siesta:      5.13061  10.26122   5.13061  1       19
siesta:      5.13061  15.39183   0.00000  1       20
siesta:      7.69591  12.82652   7.69591  1       21
siesta:      2.56530  12.82652   2.56530  1       22
siesta:      2.56530  17.95713   7.69591  1       23
siesta:      7.69591  17.95713   2.56530  1       24
siesta:     10.26122  10.26122   0.00000  1       25
siesta:     10.26122  15.39183   5.13061  1       26
siesta:     15.39183  10.26122   5.13061  1       27
siesta:     15.39183  15.39183   0.00000  1       28
siesta:     17.95713  12.82652   7.69591  1       29
siesta:     12.82652  12.82652   2.56530  1       30
siesta:     12.82652  17.95713   7.69591  1       31
siesta:     17.95713  17.95713   2.56530  1       32
siesta:      0.00000   0.00000  10.26122  1       33
siesta:      0.00000   5.13061  15.39183  1       34
siesta:      5.13061   0.00000  15.39183  1       35
siesta:      5.13061   5.13061  10.26122  1       36
siesta:      7.69591   2.56530  17.95713  1       37
siesta:      2.56530   2.56530  12.82652  1       38
siesta:      2.56530   7.69591  17.95713  1       39
siesta:      7.69591   7.69591  12.82652  1       40
siesta:     10.26122   0.00000  10.26122  1       41
siesta:     10.26122   5.13061  15.39183  1       42
siesta:     15.39183   0.00000  15.39183  1       43
siesta:     15.39183   5.13061  10.26122  1       44
siesta:     17.95713   2.56530  17.95713  1       45
siesta:     12.82652   2.56530  12.82652  1       46
siesta:     12.82652   7.69591  17.95713  1       47
siesta:     17.95713   7.69591  12.82652  1       48
siesta:      0.00000  10.26122  10.26122  1       49
siesta:      0.00000  15.39183  15.39183  1       50
siesta:      5.13061  10.26122  15.39183  1       51
siesta:      5.13061  15.39183  10.26122  1       52
siesta:      7.69591  12.82652  17.95713  1       53
siesta:      2.56530  12.82652  12.82652  1       54
siesta:      2.56530  17.95713  17.95713  1       55
siesta:      7.69591  17.95713  12.82652  1       56
siesta:     10.26122  10.26122  10.26122  1       57
siesta:     10.26122  15.39183  15.39183  1       58
siesta:     15.39183  10.26122  15.39183  1       59
siesta:     15.39183  15.39183  10.26122  1       60
siesta:     17.95713  12.82652  17.95713  1       61
siesta:     12.82652  12.82652  12.82652  1       62
siesta:     12.82652  17.95713  17.95713  1       63
siesta:     17.95713  17.95713  12.82652  1       64
siesta:      0.00000   0.00000  20.52243  1       65
siesta:      0.00000   5.13061  25.65304  1       66
siesta:      5.13061   0.00000  25.65304  1       67
siesta:      5.13061   5.13061  20.52243  1       68
siesta:      7.69591   2.56530  28.21835  1       69
siesta:      2.56530   2.56530  23.08774  1       70
siesta:      2.56530   7.69591  28.21835  1       71
siesta:      7.69591   7.69591  23.08774  1       72
siesta:     10.26122   0.00000  20.52243  1       73
siesta:     10.26122   5.13061  25.65304  1       74
siesta:     15.39183   0.00000  25.65304  1       75
siesta:     15.39183   5.13061  20.52243  1       76
siesta:     17.95713   2.56530  28.21835  1       77
siesta:     12.82652   2.56530  23.08774  1       78
siesta:     12.82652   7.69591  28.21835  1       79
siesta:     17.95713   7.69591  23.08774  1       80
siesta:      0.00000  10.26122  20.52243  1       81
siesta:      0.00000  15.39183  25.65304  1       82
siesta:      5.13061  10.26122  25.65304  1       83
siesta:      5.13061  15.39183  20.52243  1       84
siesta:      7.69591  12.82652  28.21835  1       85
siesta:      2.56530  12.82652  23.08774  1       86
siesta:      2.56530  17.95713  28.21835  1       87
siesta:      7.69591  17.95713  23.08774  1       88
siesta:     10.26122  10.26122  20.52243  1       89
siesta:     10.26122  15.39183  25.65304  1       90
siesta:     15.39183  10.26122  25.65304  1       91
siesta:     15.39183  15.39183  20.52243  1       92
siesta:     17.95713  12.82652  28.21835  1       93
siesta:     12.82652  12.82652  23.08774  1       94
siesta:     12.82652  17.95713  28.21835  1       95
siesta:     17.95713  17.95713  23.08774  1       96
siesta:      0.00000   0.00000  30.78365  1       97
siesta:      0.00000   5.13061  35.91426  1       98
siesta:      5.13061   0.00000  35.91426  1       99
siesta:      5.13061   5.13061  30.78365  1      100
siesta:      7.69591   2.56530  38.47956  1      101
siesta:      2.56530   2.56530  33.34896  1      102
siesta:      2.56530   7.69591  38.47956  1      103
siesta:      7.69591   7.69591  33.34896  1      104
siesta:     10.26122   0.00000  30.78365  1      105
siesta:     10.26122   5.13061  35.91426  1      106
siesta:     15.39183   0.00000  35.91426  1      107
siesta:     15.39183   5.13061  30.78365  1      108
siesta:     17.95713   2.56530  38.47956  1      109
siesta:     12.82652   2.56530  33.34896  1      110
siesta:     12.82652   7.69591  38.47956  1      111
siesta:     17.95713   7.69591  33.34896  1      112
siesta:      0.00000  10.26122  30.78365  1      113
siesta:      0.00000  15.39183  35.91426  1      114
siesta:      5.13061  10.26122  35.91426  1      115
siesta:      5.13061  15.39183  30.78365  1      116
siesta:      7.69591  12.82652  38.47956  1      117
siesta:      2.56530  12.82652  33.34896  1      118
siesta:      2.56530  17.95713  38.47956  1      119
siesta:      7.69591  17.95713  33.34896  1      120
siesta:     10.26122  10.26122  30.78365  1      121
siesta:     10.26122  15.39183  35.91426  1      122
siesta:     15.39183  10.26122  35.91426  1      123
siesta:     15.39183  15.39183  30.78365  1      124
siesta:     17.95713  12.82652  38.47956  1      125
siesta:     12.82652  12.82652  33.34896  1      126
siesta:     12.82652  17.95713  38.47956  1      127
siesta:     17.95713  17.95713  33.34896  1      128

siesta: System type = bulk      

initatomlists: Number of atoms, orbitals, and projectors:    128  1664  2048

siesta: ******************** Simulation parameters ****************************
siesta:
siesta: The following are some of the parameters of the simulation.
siesta: A complete list of the parameters used, including default values,
siesta: can be found in file out.fdf
siesta:
redata: Spin configuration                          = none
redata: Number of spin components                   = 1
redata: Time-Reversal Symmetry                      = T
redata: Spin spiral                                 = F
redata: Long output                                 =   F
redata: Number of Atomic Species                    =        1
redata: Charge density info will appear in .RHO file
redata: Write Mulliken Pop.                         = NO
redata: Matel table size (NRTAB)                    =     1024
redata: Mesh Cutoff                                 =   250.0000 Ry
redata: Net charge of the system                    =     0.0000 |e|
redata: Min. number of SCF Iter                     =        0
redata: Max. number of SCF Iter                     =       50
redata: SCF convergence failure will abort job
redata: SCF mix quantity                            = Hamiltonian
redata: Mix DM or H after convergence               =   F
redata: Recompute H after scf cycle                 =   F
redata: Mix DM in first SCF step                    =   T
redata: Write Pulay info on disk                    =   F
redata: New DM Occupancy tolerance                  = 0.000000000001
redata: No kicks to SCF
redata: DM Mixing Weight for Kicks                  =     0.5000
redata: Require Harris convergence for SCF          =   F
redata: Harris energy tolerance for SCF             =     0.000100 eV
redata: Require DM convergence for SCF              =   T
redata: DM tolerance for SCF                        =     0.000100
redata: Require EDM convergence for SCF             =   F
redata: EDM tolerance for SCF                       =     0.001000 eV
redata: Require H convergence for SCF               =   T
redata: Hamiltonian tolerance for SCF               =     0.001000 eV
redata: Require (free) Energy convergence for SCF   =   F
redata: (free) Energy tolerance for SCF             =     0.000100 eV
redata: Using Saved Data (generic)                  =   F
redata: Use continuation files for DM               =   F
redata: Neglect nonoverlap interactions             =   F
redata: Method of Calculation                       = Diagonalization
redata: Electronic Temperature                      =   290.1109 K
redata: Fix the spin of the system                  =   F
redata: Dynamics option                             = Single-point calculation
mix.SCF: Pulay mixing                            = Pulay
mix.SCF:    Variant                              = stable
mix.SCF:    History steps                        = 6
mix.SCF:    Linear mixing weight                 =     0.200000
mix.SCF:    Mixing weight                        =     0.200000
mix.SCF:    SVD condition                        = 0.1000E-07
redata: ***********************************************************************

%block SCF.Mixers
  Pulay
%endblock SCF.Mixers

%block SCF.Mixer.Pulay
  # Mixing method
  method pulay
  variant stable

  # Mixing options
  weight 0.2000
  weight.linear 0.2000
  history 6
%endblock SCF.Mixer.Pulay
 
DM_history_depth set to one: no extrapolation allowed by default for geometry relaxation
Size of DM history Fstack: 1
Total number of electrons:   512.000000
Total ionic charge:   512.000000

* ProcessorY, Blocksize:    8  13


* Orbital distribution balance (max,min):    13    13

 Kpoints in:            1 . Kpoints trimmed:            1

siesta: k-grid: Number of k-points =     1
siesta: k-grid: Cutoff (effective) =     5.430 Ang
siesta: k-grid: Supercell and displacements
siesta: k-grid:    1   0   0      0.000
siesta: k-grid:    0   1   0      0.000
siesta: k-grid:    0   0   1      0.000
 
diag: Algorithm                                     = D&C
diag: Parallel over k                               =   F
diag: Use parallel 2D distribution                  =   T
diag: Parallel block-size                           = 13
diag: Parallel distribution                         =     8 x    16
diag: Used triangular part                          = Lower
diag: Absolute tolerance                            =  0.100E-15
diag: Orthogonalization factor                      =  0.100E-05
diag: Memory factor                                 =  1.0000
 
 
ts: **************************************************************
ts: Save H and S matrices                           =    F
ts: Save DM and EDM matrices                        =    F
ts: Only save the overlap matrix S                  =    F
ts: **************************************************************
 
************************ Begin: TS CHECKS AND WARNINGS ************************
************************ End: TS CHECKS AND WARNINGS **************************


                     ====================================
                        Single-point calculation
                     ====================================

outcoor: Atomic coordinates (fractional):                   
    0.00000000    0.00000000    0.00000000   1       1  Si
    0.00000000    0.25000000    0.12500000   1       2  Si
    0.25000000    0.00000000    0.12500000   1       3  Si
    0.25000000    0.25000000    0.00000000   1       4  Si
    0.37500000    0.12500000    0.18750000   1       5  Si
    0.12500000    0.12500000    0.06250000   1       6  Si
    0.12500000    0.37500000    0.18750000   1       7  Si
    0.37500000    0.37500000    0.06250000   1       8  Si
    0.50000000    0.00000000    0.00000000   1       9  Si
    0.50000000    0.25000000    0.12500000   1      10  Si
    0.75000000    0.00000000    0.12500000   1      11  Si
    0.75000000    0.25000000    0.00000000   1      12  Si
    0.87500000    0.12500000    0.18750000   1      13  Si
    0.62500000    0.12500000    0.06250000   1      14  Si
    0.62500000    0.37500000    0.18750000   1      15  Si
    0.87500000    0.37500000    0.06250000   1      16  Si
    0.00000000    0.50000000    0.00000000   1      17  Si
    0.00000000    0.75000000    0.12500000   1      18  Si
    0.25000000    0.50000000    0.12500000   1      19  Si
    0.25000000    0.75000000    0.00000000   1      20  Si
    0.37500000    0.62500000    0.18750000   1      21  Si
    0.12500000    0.62500000    0.06250000   1      22  Si
    0.12500000    0.87500000    0.18750000   1      23  Si
    0.37500000    0.87500000    0.06250000   1      24  Si
    0.50000000    0.50000000    0.00000000   1      25  Si
    0.50000000    0.75000000    0.12500000   1      26  Si
    0.75000000    0.50000000    0.12500000   1      27  Si
    0.75000000    0.75000000    0.00000000   1      28  Si
    0.87500000    0.62500000    0.18750000   1      29  Si
    0.62500000    0.62500000    0.06250000   1      30  Si
    0.62500000    0.87500000    0.18750000   1      31  Si
    0.87500000    0.87500000    0.06250000   1      32  Si
    0.00000000    0.00000000    0.25000000   1      33  Si
    0.00000000    0.25000000    0.37500000   1      34  Si
    0.25000000    0.00000000    0.37500000   1      35  Si
    0.25000000    0.25000000    0.25000000   1      36  Si
    0.37500000    0.12500000    0.43750000   1      37  Si
    0.12500000    0.12500000    0.31250000   1      38  Si
    0.12500000    0.37500000    0.43750000   1      39  Si
    0.37500000    0.37500000    0.31250000   1      40  Si
    0.50000000    0.00000000    0.25000000   1      41  Si
    0.50000000    0.25000000    0.37500000   1      42  Si
    0.75000000    0.00000000    0.37500000   1      43  Si
    0.75000000    0.25000000    0.25000000   1      44  Si
    0.87500000    0.12500000    0.43750000   1      45  Si
    0.62500000    0.12500000    0.31250000   1      46  Si
    0.62500000    0.37500000    0.43750000   1      47  Si
    0.87500000    0.37500000    0.31250000   1      48  Si
    0.00000000    0.50000000    0.25000000   1      49  Si
    0.00000000    0.75000000    0.37500000   1      50  Si
    0.25000000    0.50000000    0.37500000   1      51  Si
    0.25000000    0.75000000    0.25000000   1      52  Si
    0.37500000    0.62500000    0.43750000   1      53  Si
    0.12500000    0.62500000    0.31250000   1      54  Si
    0.12500000    0.87500000    0.43750000   1      55  Si
    0.37500000    0.87500000    0.31250000   1      56  Si
    0.50000000    0.50000000    0.25000000   1      57  Si
    0.50000000    0.75000000    0.37500000   1      58  Si
    0.75000000    0.50000000    0.37500000   1      59  Si
    0.75000000    0.75000000    0.25000000   1      60  Si
    0.87500000    0.62500000    0.43750000   1      61  Si
    0.62500000    0.62500000    0.31250000   1      62  Si
    0.62500000    0.87500000    0.43750000   1      63  Si
    0.87500000    0.87500000    0.31250000   1      64  Si
    0.00000000    0.00000000    0.50000000   1      65  Si
    0.00000000    0.25000000    0.62500000   1      66  Si
    0.25000000    0.00000000    0.62500000   1      67  Si
    0.25000000    0.25000000    0.50000000   1      68  Si
    0.37500000    0.12500000    0.68750000   1      69  Si
    0.12500000    0.12500000    0.56250000   1      70  Si
    0.12500000    0.37500000    0.68750000   1      71  Si
    0.37500000    0.37500000    0.56250000   1      72  Si
    0.50000000    0.00000000    0.50000000   1      73  Si
    0.50000000    0.25000000    0.62500000   1      74  Si
    0.75000000    0.00000000    0.62500000   1      75  Si
    0.75000000    0.25000000    0.50000000   1      76  Si
    0.87500000    0.12500000    0.68750000   1      77  Si
    0.62500000    0.12500000    0.56250000   1      78  Si
    0.62500000    0.37500000    0.68750000   1      79  Si
    0.87500000    0.37500000    0.56250000   1      80  Si
    0.00000000    0.50000000    0.50000000   1      81  Si
    0.00000000    0.75000000    0.62500000   1      82  Si
    0.25000000    0.50000000    0.62500000   1      83  Si
    0.25000000    0.75000000    0.50000000   1      84  Si
    0.37500000    0.62500000    0.68750000   1      85  Si
    0.12500000    0.62500000    0.56250000   1      86  Si
    0.12500000    0.87500000    0.68750000   1      87  Si
    0.37500000    0.87500000    0.56250000   1      88  Si
    0.50000000    0.50000000    0.50000000   1      89  Si
    0.50000000    0.75000000    0.62500000   1      90  Si
    0.75000000    0.50000000    0.62500000   1      91  Si
    0.75000000    0.75000000    0.50000000   1      92  Si
    0.87500000    0.62500000    0.68750000   1      93  Si
    0.62500000    0.62500000    0.56250000   1      94  Si
    0.62500000    0.87500000    0.68750000   1      95  Si
    0.87500000    0.87500000    0.56250000   1      96  Si
    0.00000000    0.00000000    0.75000000   1      97  Si
    0.00000000    0.25000000    0.87500000   1      98  Si
    0.25000000    0.00000000    0.87500000   1      99  Si
    0.25000000    0.25000000    0.75000000   1     100  Si
    0.37500000    0.12500000    0.93750000   1     101  Si
    0.12500000    0.12500000    0.81250000   1     102  Si
    0.12500000    0.37500000    0.93750000   1     103  Si
    0.37500000    0.37500000    0.81250000   1     104  Si
    0.50000000    0.00000000    0.75000000   1     105  Si
    0.50000000    0.25000000    0.87500000   1     106  Si
    0.75000000    0.00000000    0.87500000   1     107  Si
    0.75000000    0.25000000    0.75000000   1     108  Si
    0.87500000    0.12500000    0.93750000   1     109  Si
    0.62500000    0.12500000    0.81250000   1     110  Si
    0.62500000    0.37500000    0.93750000   1     111  Si
    0.87500000    0.37500000    0.81250000   1     112  Si
    0.00000000    0.50000000    0.75000000   1     113  Si
    0.00000000    0.75000000    0.87500000   1     114  Si
    0.25000000    0.50000000    0.87500000   1     115  Si
    0.25000000    0.75000000    0.75000000   1     116  Si
    0.37500000    0.62500000    0.93750000   1     117  Si
    0.12500000    0.62500000    0.81250000   1     118  Si
    0.12500000    0.87500000    0.93750000   1     119  Si
    0.37500000    0.87500000    0.81250000   1     120  Si
    0.50000000    0.50000000    0.75000000   1     121  Si
    0.50000000    0.75000000    0.87500000   1     122  Si
    0.75000000    0.50000000    0.87500000   1     123  Si
    0.75000000    0.75000000    0.75000000   1     124  Si
    0.87500000    0.62500000    0.93750000   1     125  Si
    0.62500000    0.62500000    0.81250000   1     126  Si
    0.62500000    0.87500000    0.93750000   1     127  Si
    0.87500000    0.87500000    0.81250000   1     128  Si

outcell: Unit cell vectors (Ang):
       10.860000    0.000000    0.000000
        0.000000   10.860000    0.000000
        0.000000    0.000000   21.720000

outcell: Cell vector modules (Ang)   :   10.860000   10.860000   21.720000
outcell: Cell angles (23,13,12) (deg):     90.0000     90.0000     90.0000
outcell: Cell volume (Ang**3)        :   2561.6481
Gamma-point calculation with interaction between periodic images
Some features might not work optimally:
e.g. DM initialization from atomic data
<dSpData1D:S at geom step 0
  <sparsity:sparsity for geom step 0
    nrows_g=1664 nrows=13 sparsity=.0039 nnzs=10727, refcount: 7>
  <dData1D:(new from dSpData1D) n=10727, refcount: 1>
refcount: 1>
new_DM -- step:     1
Initializing Density Matrix...
DM filled with atomic data:
<dSpData2D:DM initialized from atoms
  <sparsity:sparsity for geom step 0
    nrows_g=1664 nrows=13 sparsity=.0039 nnzs=10727, refcount: 8>
  <dData2D:DM n=10727 m=1, refcount: 1>
refcount: 1>
calc_prescreen_eri: max_eri_prescreen      0.15112031E+01
init_prescreen_eri: nelem_ij =         1664
init_prescreen_eri: nelem_kl =         1664
init_prescreen_eri: list_ij  :        59072
init_prescreen_eri: list_kl  :        59072
init_prescreen_eri: max_eri =         0.151120E+01
No. of atoms with KB's overlaping orbs in proc 0. Max # of overlaps:      33     239

InitMesh: MESH =   108 x   108 x   216 =     2519424
InitMesh: (bp) =    54 x    54 x   108 =      314928
InitMesh: Mesh cutoff (required, used) =   250.000   273.331 Ry
ExtMesh (bp) on 0 =   146 x    99 x    99 =     1430946
Setting up quadratic distribution...
ExtMesh (bp) on 0 =   106 x   106 x   105 =     1179780
PhiOnMesh: Number of (b)points on node 0 =                 2548
PhiOnMesh: nlist on node 0 =               301435
setup_hfx: call #0001
 setup_hfx: HFX energy:       -740.172604  eV

stepf: Fermi-Dirac step function
setup_hfx: call #0002
 setup_hfx: HFX energy:       -716.648827  eV

siesta: Program's energy decomposition (eV):
siesta: Ebs     =     -4821.673860
siesta: Eions   =     23906.338943
siesta: Ena     =      6797.495853
siesta: Ekin    =      5281.092096
siesta: Enl     =      1784.886482
siesta: Eso     =         0.000000
siesta: Edftu   =         0.000000
siesta: DEna    =       513.122479
siesta: DUscf   =        22.650867
siesta: DUext   =         0.000000
siesta: Exc     =     -4186.647380
siesta: eta*DQ  =         0.000000
siesta: Emadel  =         0.000000
siesta: Emeta   =         0.000000
siesta: Emolmec =         0.000000
siesta: Ekinion =         0.000000
siesta: Eharris =    -13876.359459
siesta: Etot    =    -13693.738545
siesta: FreeEng =    -13693.738546

        iscf     Eharris(eV)        E_KS(eV)     FreeEng(eV)     dDmax    Ef(eV) dHmax(eV)
   scf:    1   -13876.359459   -13693.738545   -13693.738546  0.915377 -2.813739  0.322564
timer: Routine,Calls,Time,% = IterSCF        1     111.856  56.31
setup_hfx: call #0003
 setup_hfx: HFX energy:       -717.954085  eV
   scf:    2   -13695.554970   -13694.645884   -13694.645884  0.010940 -2.874397  0.253730
setup_hfx: call #0004
 setup_hfx: HFX energy:       -722.567904  eV
   scf:    3   -13697.970877   -13696.277967   -13696.277967  0.039890 -3.037728  0.116862
setup_hfx: call #0005
 setup_hfx: HFX energy:       -722.973352  eV
   scf:    4   -13696.367642   -13696.319176   -13696.319176  0.011124 -3.112395  0.012760
setup_hfx: call #0006
 setup_hfx: HFX energy:       -722.989390  eV
   scf:    5   -13696.319491   -13696.319311   -13696.319311  0.000418 -3.109655  0.005597
setup_hfx: call #0007
 setup_hfx: HFX energy:       -722.997605  eV
   scf:    6   -13696.319375   -13696.319330   -13696.319330  0.000176 -3.109234  0.003550
setup_hfx: call #0008
 setup_hfx: HFX energy:       -723.013959  eV
   scf:    7   -13696.319284   -13696.319255   -13696.319255  0.000198 -3.112354  0.000118
setup_hfx: call #0009
 setup_hfx: HFX energy:       -723.014004  eV
   scf:    8   -13696.319256   -13696.319256   -13696.319256  0.000004 -3.112388  0.000047

SCF Convergence by DM+H criterion
max |DM_out - DM_in|         :     0.0000041638
max |H_out - H_in|      (eV) :     0.0000468582
SCF cycle converged after 8 iterations

Using DM_out to compute the final energy and forces
No. of atoms with KB's overlaping orbs in proc 0. Max # of overlaps:      33     239
setup_hfx: call #0010
 setup_hfx: HFX energy:       -723.014004  eV

siesta: E_KS(eV) =           -13696.3193

siesta: E_KS - E_eggbox =    -13696.3193

siesta: Atomic forces (eV/Ang):
     1   -0.001638   -0.001608   -0.000037
     2   -0.001643   -0.001700   -0.000036
     3   -0.001718   -0.001660   -0.000048
     4   -0.001634   -0.001658   -0.000036
     5   -0.001520   -0.001638    0.000030
     6   -0.001700   -0.001719    0.000042
     7   -0.001632   -0.001525    0.000050
     8   -0.001527   -0.001514   -0.000002
     9    0.001647   -0.001599    0.000037
    10    0.001651   -0.001633    0.000076
    11    0.001773   -0.001589    0.000067
    12    0.001707   -0.001670    0.000077
    13    0.001566   -0.001756    0.000009
    14    0.001580   -0.001661   -0.000036
    15    0.001556   -0.001552   -0.000076
    16    0.001504   -0.001474   -0.000074
    17   -0.001672    0.001623    0.000043
    18   -0.001608    0.001768    0.000094
    19   -0.001596    0.001635    0.000056
    20   -0.001648    0.001705    0.000068
    21   -0.001535    0.001543   -0.000071
    22   -0.001669    0.001581   -0.000008
    23   -0.001750    0.001565    0.000002
    24   -0.001484    0.001510   -0.000038
    25    0.001652    0.001674   -0.000023
    26    0.001672    0.001683   -0.000019
    27    0.001693    0.001679   -0.000013
    28    0.001708    0.001693   -0.000044
    29    0.001514    0.001663    0.000060
    30    0.001535    0.001557    0.000063
    31    0.001649    0.001483    0.000068
    32    0.001570    0.001588    0.000052
    33   -0.001656   -0.001633   -0.000094
    34   -0.001657   -0.001697   -0.000032
    35   -0.001704   -0.001661   -0.000056
    36   -0.001617   -0.001617    0.000020
[...]
   622    0.000017    0.000030    0.000003
   623    0.000026   -0.000023    0.000033
   624    0.000017   -0.000029    0.000004
   625   -0.000003    0.000003    0.000020
   626   -0.000017    0.000009   -0.000007
   627    0.000009   -0.000029   -0.000010
   628    0.000001    0.000006    0.000015
   629   -0.000034    0.000038    0.000015
   630    0.000011    0.000026   -0.000002
   631    0.000024   -0.000021    0.000032
   632    0.000016   -0.000027    0.000006
   633   -0.000005    0.000002    0.000020
   634   -0.000028    0.000007   -0.000010
   635    0.000010   -0.000052   -0.000010
   636    0.000009   -0.000001    0.000009
   637   -0.000049    0.000043    0.000035
   638    0.000018    0.000032   -0.000002
   639    0.000030   -0.000018    0.000038
   640    0.000007    0.000002   -0.000004
   641   -0.000009   -0.000005    0.000038
   642   -0.000010    0.000042   -0.000046
   643    0.000035   -0.000035   -0.000046
   644    0.000028    0.000026    0.000016
   645   -0.000011    0.000008    0.000005
   646    0.000011   -0.000010    0.000006
   647   -0.000002   -0.000001    0.000015
   648    0.000005   -0.000001   -0.000020
   649   -0.000026    0.000011    0.000022
   650   -0.000000    0.000024   -0.000015
   651    0.000011   -0.000043   -0.000044
   652    0.000022    0.000034    0.000019
   653   -0.000026    0.000011    0.000001
   654    0.000017   -0.000029    0.000005
   655   -0.000011    0.000008    0.000018
   656    0.000007    0.000001   -0.000022
   657   -0.000029    0.000007    0.000023
   658    0.000001    0.000032   -0.000008
   659    0.000008   -0.000042   -0.000046
   660    0.000022    0.000032    0.000018
   661   -0.000033    0.000016    0.000008
   662    0.000011   -0.000024    0.000007
   663   -0.000011    0.000003    0.000008
   664    0.000003    0.000017   -0.000025
   665   -0.000025    0.000015    0.000023
   666   -0.000003    0.000027   -0.000010
   667   -0.000013   -0.000036   -0.000038
   668    0.000036    0.000032    0.000007
   669   -0.000033    0.000002    0.000023
   670    0.000035   -0.000022   -0.000001
   671   -0.000007    0.000021    0.000022
   672   -0.000008    0.000015   -0.000008
   673    0.000012   -0.000014    0.000011
   674   -0.000017    0.000009   -0.000037
   675    0.000013   -0.000046   -0.000009
   676    0.000036    0.000013    0.000016
   677   -0.000005    0.000002    0.000013
   678   -0.000008    0.000024    0.000004
   679   -0.000010   -0.000008    0.000018
   680    0.000010   -0.000004   -0.000020
   681   -0.000003   -0.000006    0.000022
   682    0.000003    0.000012   -0.000005
   683    0.000005   -0.000046   -0.000006
   684    0.000034    0.000016    0.000016
   685   -0.000028    0.000000    0.000024
   686    0.000002    0.000011    0.000008
   687   -0.000009   -0.000004    0.000016
   688    0.000009    0.000014   -0.000025
   689   -0.000003   -0.000002    0.000027
   690    0.000008    0.000007   -0.000009
   691   -0.000002   -0.000038    0.000001
   692    0.000028    0.000027    0.000017
   693   -0.000024    0.000012    0.000012
   694    0.000015    0.000009    0.000002
   695   -0.000003    0.000007    0.000024
   696    0.000011    0.000004   -0.000018
   697    0.000004   -0.000002    0.000022
   698   -0.000003    0.000009   -0.000012
   699    0.000003   -0.000045   -0.000016
   700    0.000043    0.000019    0.000013
   701   -0.000051    0.000023    0.000044
   702    0.000012    0.000020    0.000007
   703   -0.000013    0.000006    0.000024
   704   -0.000013    0.000014   -0.000002
   705    0.000012   -0.000016    0.000016
   706   -0.000021    0.000008   -0.000035
   707    0.000007   -0.000050   -0.000008
   708    0.000036    0.000015    0.000011
   709   -0.000007   -0.000001    0.000024
   710   -0.000009    0.000023    0.000003
   711   -0.000007   -0.000007    0.000017
   712    0.000011    0.000014   -0.000029
   713   -0.000004   -0.000000    0.000025
   714    0.000010    0.000014   -0.000009
   715    0.000003   -0.000038    0.000004
   716    0.000029    0.000033    0.000016
   717   -0.000021    0.000012    0.000014
   718    0.000015    0.000012    0.000004
   719   -0.000002    0.000009    0.000026
   720    0.000012    0.000005   -0.000018
   721    0.000006   -0.000002    0.000025
   722    0.000002    0.000007   -0.000014
   723    0.000006   -0.000033   -0.000009
   724    0.000033    0.000018    0.000022
   725   -0.000028    0.000004    0.000016
   726    0.000009    0.000017    0.000013
   727   -0.000008    0.000001    0.000016
   728    0.000002    0.000004   -0.000017
   729   -0.000003    0.000001    0.000028
   730   -0.000014    0.000005   -0.000010
   731    0.000000   -0.000052   -0.000014
   732    0.000043    0.000013    0.000014
   733   -0.000049    0.000018    0.000044
   734    0.000012    0.000007    0.000005
   735   -0.000012    0.000004    0.000024
   736   -0.000008    0.000016   -0.000005
   737    0.000014   -0.000012    0.000009
   738   -0.000002   -0.000001   -0.000018
   739    0.000022   -0.000023    0.000000
   740    0.000012    0.000006    0.000022
   741   -0.000005    0.000041    0.000013
   742    0.000002    0.000048    0.000002
   743    0.000020   -0.000011    0.000019
   744    0.000026   -0.000027    0.000011
   745    0.000008    0.000006    0.000025
   746   -0.000012    0.000004   -0.000005
   747    0.000007   -0.000026   -0.000010
   748    0.000002    0.000007    0.000020
   749   -0.000031    0.000039    0.000014
   750    0.000013    0.000033    0.000008
   751    0.000026   -0.000022    0.000032
   752    0.000017   -0.000028    0.000010
   753   -0.000000    0.000006    0.000028
   754   -0.000017    0.000008   -0.000007
   755    0.000009   -0.000028   -0.000005
   756   -0.000003    0.000003    0.000018
   757   -0.000035    0.000032    0.000011
   758    0.000014    0.000022    0.000006
   759    0.000021   -0.000025    0.000040
   760    0.000018   -0.000028    0.000008
   761   -0.000006    0.000002    0.000027
   762   -0.000028    0.000002   -0.000003
   763    0.000007   -0.000052   -0.000005
   764    0.000007    0.000003    0.000013
   765   -0.000049    0.000041    0.000039
   766    0.000017    0.000033    0.000003
   767    0.000033   -0.000020    0.000035
   768    0.000003    0.000004   -0.000001
   769   -0.000009   -0.000005    0.000039
   770   -0.000008    0.000043   -0.000048
   771    0.000038   -0.000035   -0.000045
   772    0.000030    0.000029    0.000020
   773   -0.000006    0.000007    0.000004
   774    0.000012   -0.000011    0.000007
   775    0.000000    0.000003    0.000015
   776    0.000007    0.000001   -0.000019
   777   -0.000025    0.000010    0.000024
   778   -0.000002    0.000025   -0.000015
   779    0.000007   -0.000046   -0.000047
   780    0.000020    0.000031    0.000014
   781   -0.000038    0.000011    0.000004
   782    0.000016   -0.000025    0.000008
   783   -0.000012    0.000006    0.000014
   784   -0.000001    0.000013   -0.000029
   785   -0.000031    0.000008    0.000023
   786    0.000001    0.000023   -0.000013
   787    0.000010   -0.000037   -0.000046
   788    0.000018    0.000040    0.000012
   789   -0.000029    0.000010    0.000005
   790    0.000018   -0.000031   -0.000002
   791   -0.000010    0.000015    0.000017
   792    0.000007    0.000009   -0.000025
   793   -0.000025    0.000011    0.000022
   794   -0.000009    0.000031   -0.000015
   795   -0.000011   -0.000039   -0.000038
   796    0.000040    0.000029    0.000012
   797   -0.000032    0.000002    0.000024
   798    0.000029   -0.000018    0.000002
   799   -0.000007    0.000018    0.000016
   800   -0.000007    0.000018   -0.000005
   801    0.000014   -0.000011    0.000014
   802   -0.000017    0.000009   -0.000038
   803    0.000016   -0.000046   -0.000008
   804    0.000034    0.000014    0.000013
   805   -0.000007   -0.000001    0.000015
   806   -0.000009    0.000023    0.000008
   807   -0.000007   -0.000008    0.000017
   808    0.000010    0.000008   -0.000024
   809   -0.000001   -0.000005    0.000027
   810    0.000005    0.000003   -0.000006
   811    0.000003   -0.000031   -0.000000
   812    0.000031    0.000027    0.000021
   813   -0.000025    0.000011    0.000010
   814    0.000011    0.000009    0.000003
   815   -0.000004    0.000001    0.000020
   816    0.000012    0.000003   -0.000019
   817    0.000003    0.000001    0.000024
   818   -0.000002    0.000004   -0.000015
   819    0.000001   -0.000030   -0.000010
   820    0.000033    0.000019    0.000022
   821   -0.000027    0.000011    0.000008
   822    0.000006    0.000021    0.000007
   823   -0.000011    0.000001    0.000012
   824    0.000007    0.000007   -0.000024
   825   -0.000001    0.000003    0.000025
   826   -0.000011    0.000012   -0.000015
   827    0.000004   -0.000044   -0.000017
   828    0.000044    0.000020    0.000011
   829   -0.000043    0.000021    0.000040
   830    0.000014    0.000016    0.000000
   831   -0.000012    0.000009    0.000021
   832   -0.000008    0.000013   -0.000007
   833    0.000013   -0.000015    0.000016
   834   -0.000017    0.000013   -0.000038
   835    0.000011   -0.000036   -0.000004
   836    0.000040    0.000017    0.000027
   837   -0.000007    0.000010    0.000009
   838   -0.000003    0.000020    0.000004
   839   -0.000005   -0.000010    0.000022
   840    0.000019    0.000002   -0.000018
   841    0.000006    0.000001    0.000029
   842   -0.000000    0.000005   -0.000014
   843    0.000004   -0.000036   -0.000011
   844    0.000033    0.000018    0.000022
   845   -0.000025    0.000007    0.000009
   846    0.000006    0.000022    0.000010
   847   -0.000011    0.000003    0.000012
   848    0.000005    0.000004   -0.000022
   849   -0.000000    0.000001    0.000028
   850   -0.000003    0.000008   -0.000015
   851    0.000004   -0.000038   -0.000010
   852    0.000029    0.000018    0.000016
   853   -0.000024    0.000006    0.000005
   854    0.000008    0.000013    0.000004
   855   -0.000012    0.000000    0.000015
   856    0.000009   -0.000004   -0.000022
   857   -0.000004   -0.000001    0.000025
   858   -0.000002    0.000012   -0.000008
   859    0.000002   -0.000047   -0.000018
   860    0.000044    0.000015    0.000016
   861   -0.000049    0.000022    0.000046
   862    0.000005    0.000015    0.000005
   863   -0.000008   -0.000002    0.000014
   864   -0.000011    0.000018   -0.000003
   865    0.000014   -0.000014    0.000012
   866   -0.000003   -0.000007   -0.000015
   867    0.000021   -0.000034   -0.000007
   868    0.000017   -0.000000    0.000017
   869   -0.000008    0.000040    0.000013
   870    0.000002    0.000050    0.000001
   871    0.000023   -0.000015    0.000016
   872    0.000020   -0.000027    0.000010
   873    0.000001    0.000006    0.000027
   874   -0.000012    0.000010   -0.000003
   875    0.000010   -0.000029   -0.000007
   876    0.000003    0.000009    0.000019
   877   -0.000033    0.000037    0.000012
   878    0.000013    0.000022    0.000003
   879    0.000023   -0.000019    0.000038
   880    0.000022   -0.000027    0.000008
   881    0.000001   -0.000000    0.000027
   882   -0.000021    0.000005   -0.000009
   883    0.000006   -0.000036   -0.000011
   884   -0.000002    0.000003    0.000014
   885   -0.000031    0.000026    0.000018
   886    0.000009    0.000028   -0.000000
   887    0.000022   -0.000023    0.000029
   888    0.000010   -0.000025    0.000005
   889   -0.000009    0.000000    0.000022
   890   -0.000021    0.000008   -0.000010
   891    0.000008   -0.000058    0.000002
   892    0.000008    0.000003    0.000012
   893   -0.000048    0.000037    0.000038
   894    0.000023    0.000024    0.000001
   895    0.000034   -0.000019    0.000042
   896    0.000006    0.000001   -0.000001
   897   -0.000008   -0.000009    0.000026
   898   -0.000016    0.000032   -0.000019
   899    0.000032   -0.000035   -0.000025
   900    0.000037    0.000034    0.000015
   901    0.000002    0.000002   -0.000054
   902    0.000008   -0.000009    0.000031
   903    0.000025    0.000004   -0.000041
   904    0.000020    0.000014    0.000003
   905   -0.000024    0.000009    0.000016
   906    0.000001    0.000023   -0.000005
   907    0.000012   -0.000037   -0.000030
   908    0.000021    0.000038    0.000020
   909   -0.000012    0.000011   -0.000051
   910    0.000014   -0.000031    0.000011
   911    0.000034    0.000029   -0.000039
   912    0.000015    0.000021    0.000001
   913   -0.000029    0.000008    0.000016
   914   -0.000008    0.000024   -0.000002
   915    0.000011   -0.000039   -0.000029
   916    0.000026    0.000038    0.000015
   917   -0.000014    0.000016   -0.000054
   918    0.000016   -0.000022    0.000016
   919    0.000034    0.000027   -0.000042
   920    0.000014    0.000018    0.000001
   921   -0.000027    0.000016    0.000012
   922   -0.000012    0.000029   -0.000003
   923    0.000020   -0.000014   -0.000023
   924    0.000040    0.000032    0.000010
   925   -0.000015   -0.000022   -0.000012
   926    0.000027   -0.000021    0.000014
   927    0.000043    0.000021   -0.000034
   928    0.000005    0.000018    0.000009
   929    0.000016   -0.000010    0.000008
   930   -0.000012    0.000015   -0.000027
   931    0.000004   -0.000030   -0.000006
   932    0.000038    0.000017    0.000014
   933    0.000030    0.000021   -0.000046
   934   -0.000006    0.000021    0.000015
   935    0.000022    0.000012   -0.000039
   936    0.000023    0.000012    0.000003
   937   -0.000000    0.000000    0.000024
   938    0.000004    0.000008   -0.000004
   939   -0.000007   -0.000028   -0.000005
   940    0.000034    0.000017    0.000013
   941    0.000009    0.000028   -0.000049
   942    0.000007    0.000010    0.000007
   943    0.000039    0.000024   -0.000042
   944    0.000019    0.000014   -0.000002
   945   -0.000008    0.000001    0.000022
   946    0.000001    0.000013   -0.000004
   947   -0.000006   -0.000026   -0.000003
   948    0.000036    0.000027    0.000013
   949    0.000011    0.000034   -0.000046
   950    0.000003    0.000011    0.000004
   951    0.000039    0.000030   -0.000040
   952    0.000022    0.000017    0.000001
   953   -0.000003    0.000001    0.000019
   954   -0.000011    0.000017   -0.000003
   955    0.000003   -0.000028   -0.000014
   956    0.000048    0.000025    0.000003
   957   -0.000004    0.000013   -0.000014
   958    0.000010    0.000017    0.000009
   959    0.000042    0.000025   -0.000039
   960   -0.000002    0.000021    0.000009
   961    0.000018   -0.000014    0.000010
   962   -0.000010    0.000021   -0.000023
   963   -0.000004   -0.000027   -0.000006
   964    0.000042    0.000016    0.000016
   965    0.000023    0.000027   -0.000048
   966   -0.000007    0.000025    0.000015
   967    0.000025    0.000003   -0.000044
   968    0.000017    0.000016    0.000003
   969   -0.000003    0.000001    0.000019
   970   -0.000000    0.000017   -0.000005
   971   -0.000003   -0.000029   -0.000005
   972    0.000037    0.000026    0.000011
   973    0.000014    0.000029   -0.000048
   974    0.000005    0.000010    0.000006
   975    0.000035    0.000033   -0.000038
   976    0.000020    0.000018    0.000001
   977    0.000001    0.000001    0.000020
   978    0.000003    0.000012   -0.000008
   979   -0.000006   -0.000029   -0.000010
   980    0.000032    0.000017    0.000009
   981    0.000008    0.000025   -0.000045
   982    0.000004    0.000009    0.000009
   983    0.000034    0.000025   -0.000038
   984    0.000018    0.000022   -0.000005
   985   -0.000004    0.000001    0.000021
   986   -0.000002    0.000011   -0.000003
   987   -0.000001   -0.000032   -0.000014
   988    0.000041    0.000028   -0.000001
   989   -0.000004    0.000009   -0.000017
   990    0.000016    0.000009    0.000004
   991    0.000040    0.000031   -0.000028
   992    0.000003    0.000015    0.000004
   993    0.000017   -0.000010    0.000007
   994    0.000011   -0.000006   -0.000009
   995    0.000003   -0.000024   -0.000008
   996    0.000015    0.000001    0.000018
   997    0.000019    0.000057   -0.000053
   998    0.000003    0.000039    0.000015
   999   -0.000022   -0.000002   -0.000014
  1000    0.000027   -0.000022    0.000015
  1001    0.000005    0.000005    0.000025
  1002   -0.000003   -0.000005   -0.000008
  1003   -0.000003   -0.000022   -0.000010
  1004   -0.000000    0.000004    0.000008
  1005   -0.000004    0.000058   -0.000054
  1006    0.000011    0.000028    0.000010
  1007   -0.000001    0.000011   -0.000010
  1008    0.000012   -0.000020    0.000020
  1009   -0.000002    0.000003    0.000019
  1010    0.000001   -0.000006   -0.000013
  1011   -0.000003   -0.000018   -0.000007
  1012   -0.000002    0.000005    0.000016
  1013    0.000006    0.000050   -0.000046
  1014    0.000009    0.000023    0.000008
  1015   -0.000002    0.000011   -0.000006
  1016    0.000018   -0.000017    0.000016
  1017    0.000004   -0.000001    0.000019
  1018   -0.000020   -0.000027   -0.000021
  1019   -0.000002   -0.000042   -0.000017
  1020    0.000014   -0.000003    0.000003
  1021   -0.000027    0.000044   -0.000024
  1022    0.000021    0.000031    0.000014
  1023    0.000030   -0.000010   -0.000004
  1024   -0.000003   -0.000002    0.000005
----------------------------------------
   Tot    0.001801    0.002246    0.002713
----------------------------------------
   Max    0.000058
   Res    0.000020    sqrt( Sum f_i^2 / 3N )
----------------------------------------
   Max    0.000058    constrained

Stress tensor Voigt[x,y,z,yz,xz,xy] (kbar):     -282.93     -282.93     -282.71        0.00        0.00        0.00
(Free)E + p*V (eV/cell)  -105985.4132
Target enthalpy (eV/cell)  -109603.3943

siesta: Program's energy decomposition (eV):
siesta: Ebs     =    -38491.728007
siesta: Eions   =    191250.711548
siesta: Ena     =     54379.966822
siesta: Ekin    =     42577.460636
siesta: Enl     =     14091.609976
siesta: Eso     =         0.000000
siesta: Edftu   =         0.000000
siesta: DEna    =      3996.040176
siesta: DUscf   =       197.993985
siesta: DUext   =         0.000000
siesta: Exc     =    -33595.754308
siesta: eta*DQ  =         0.000000
siesta: Emadel  =         0.000000
siesta: Emeta   =         0.000000
siesta: Emolmec =         0.000000
siesta: Ekinion =         0.000000
siesta: Eharris =   -109603.394262
siesta: Etot    =   -109603.394261
siesta: FreeEng =   -109603.394261

siesta: Final energy (eV):
siesta:  Band Struct. =  -38491.728007
siesta:       Kinetic =   42577.460636
siesta:       Hartree =    7695.293958
siesta:       Edftu   =       0.000000
siesta:       Eso     =       0.000000
siesta:    Ext. field =       0.000000
siesta:   Exch.-corr. =  -33595.754308
siesta:  Ion-electron =  -49277.432219
siesta:       Ion-ion =  -77002.962328
siesta:       Ekinion =       0.000000
siesta:         Total = -109603.394261
siesta:         Fermi =      -3.191992

siesta: Stress tensor (static) (eV/Ang**3):
siesta:    -0.176592    0.000000    0.000000
siesta:     0.000000   -0.176592    0.000000
siesta:     0.000000    0.000000   -0.176453

siesta: Cell volume =      20493.184896 Ang**3

siesta: Pressure (static):
siesta:                Solid            Molecule  Units
siesta:           0.00192281          0.00192281  Ry/Bohr**3
siesta:           0.17654557          0.17654623  eV/Ang**3
siesta:         282.86024898        282.86130310  kBar
(Free)E+ p_basis*V_orbitals  =     -108508.940010
(Free)Eharris+ p_basis*V_orbitals  =     -108508.940011

cite: Please see "Sibulk.bib" for an exhaustive BiBTeX file.
cite: Please clearly indicate Siesta version in published work: 4.1.5
cite: This calculation has made use of the following articles
cite: which are encouraged to be cited in a published work.
        Primary SIESTA paper
          DOI: www.doi.org/10.1088/0953-8984/14/11/302
 
>> End of run:  18-JUN-2025  15:31:19
Job completed
