Siesta Version  : 4.1.5
Architecture    : x86_64-intel
Compiler version: ifort (IFORT) 19.0.3.199 20190206
Compiler flags  : mpiifort -O2 -g -fPIC -fp-model source
PP flags        : -DMPI -DFC_HAVE_ABORT -DHAVE_LIBINT
Libraries       :  -L/public/software/intel/2019/mkl/lib/intel64 -lmkl_scalapack_lp64 -L/publicc/software/intel/2019/mkl/lib/intel64 -lmkl_blacs_intelmpi_lp64 -L/public/software/intel/2019/mkl/lib/intel64 -lmkl_lapack95_lp64 -L/public/software/intel/2019/mkl/lib/intel64 -lmkl_blas95_lp64 -L/public/software/intel/2019/mkl/lib/intel64 -lmkl_intel_lp64 -lmkl_core -lmkl_sequential /public/home/xmqin/MathLibs/libint/1.1.5/intel/lib/libderiv.a /public/home/xmqin/MathLibs/libint/1.1.5/intel/lib/libint.a -lpthread -lstdc++
PARALLEL version

* Running on 12 nodes in parallel
>> Start of run:   8-JAN-2023  19:42:36

                           ***********************       
                           *  WELCOME TO SIESTA  *       
                           ***********************       

reinit: Reading from standard input
reinit: Dumped input in INPUT_TMP.86058
************************** Dump of input data file ****************************
SystemName      Bulk Silisin
SystemLabel     Sibulk
NumberOfSpecies	        1
NumberOfAtoms           2
%block ChemicalSpeciesLabel
  1  14  Si
%endblock ChemicalSpeciesLabel
%include coord.fdf
PAO.BasisSize dzp
#User.Basis .true.
#WriteIonPlotFiles .true.
xc.functional      GGA    # Default vaxc.authors         HSE    # Default value
xc.authors        HSE06    # Default value
ElectronicTemperature  25 meV
#DM.UseSaveDM            T
Blocksize 2
MeshCutoff              250. Ry     # Equivalent planewave cutoff for the grid
MaxSCFIterations        50         # Maximum number of SCF iterations per step
DM.MixingWeight         0.2         # New DM amount for next SCF cycle
DM.Tolerance            1.d-4       # Tolerance in maximum difference
                                    # between input and output DM
DM.NumberPulay          6          # Number of SCF steps between pulay mixing
# Eigenvalue problem: order-N or diagonalization
SolutionMethod          diagon      # OrderN or Diagon
%block kgrid_Monkhorst_Pack
   10  0  0  0.5
   0  10  0  0.5
   0  0  10  0.5
%endblock kgrid_Monkhorst_Pack
MD.TypeOfRun            cg          # Type of dynamics:
MD.NumCGsteps  0
#MD.VariableCell   .true.
MD.MaxForceTol  0.01 eV/Ang
#WriteMDXmol   .true.
WriteForces  .true.
WriteCoorStep
BandLinesScale ReciprocalLatticeVectors
%block BandLines
1   0.375 0.375 0.75  K
20   0.0  0.0  0.0     \Gamma
20   0.5  0.0  0.5     X
20   0.5  0.25  0.75  W
20    0.5  0.5  0.5     L
20   0.0  0.0  0.0     \Gamma
%endblock BandLines
HFX.UseFittedNAOs .true.
HFX.Dynamic_parallel   .false.
************************** End of input data file *****************************

reinit: -----------------------------------------------------------------------
reinit: System Name: Bulk Silisin
reinit: -----------------------------------------------------------------------
reinit: System Label: Sibulk
reinit: -----------------------------------------------------------------------

initatom: Reading input for the pseudopotentials and atomic orbitals ----------
Species number:   1 Atomic number:   14 Label: Si
 
Ground state valence configuration:   3s02  3p02
Reading pseudopotential information in formatted form from Si.psf

Valence configuration for pseudopotential generation:
3s( 2.00) rc: 1.89
3p( 2.00) rc: 1.89
3d( 0.00) rc: 1.89
4f( 0.00) rc: 1.89
For Si, standard SIESTA heuristics set lmxkb to 3
 (one more than the basis l, including polarization orbitals).
Use PS.lmax or PS.KBprojectors blocks to override.

<basis_specs>
===============================================================================
Si                   Z=  14    Mass=  28.090        Charge= 0.17977+309
Lmxo=1 Lmxkb= 3    BasisType=split      Semic=F
L=0  Nsemic=0  Cnfigmx=3
          i=1  nzeta=2  polorb=0  (3s)
            splnorm:   0.15000    
               vcte:    0.0000    
               rinn:    0.0000    
               qcoe:    0.0000    
               qyuk:    0.0000    
               qwid:   0.10000E-01
                rcs:    0.0000      0.0000    
            lambdas:    1.0000      1.0000    
L=1  Nsemic=0  Cnfigmx=3
          i=1  nzeta=2  polorb=1  (3p)
            splnorm:   0.15000    
               vcte:    0.0000    
               rinn:    0.0000    
               qcoe:    0.0000    
               qyuk:    0.0000    
               qwid:   0.10000E-01
                rcs:    0.0000      0.0000    
            lambdas:    1.0000      1.0000    
-------------------------------------------------------------------------------
L=0  Nkbl=1  erefs: 0.17977+309
L=1  Nkbl=1  erefs: 0.17977+309
L=2  Nkbl=1  erefs: 0.17977+309
L=3  Nkbl=1  erefs: 0.17977+309
===============================================================================
</basis_specs>

atom: Called for Si                    (Z =  14)

read_vps: Pseudopotential generation method:
read_vps: ATM3      Troullier-Martins                       
Valence charge for ps generation:    4.00000

xc_check: Exchange-correlation functional:
xc_check: Hybrid Heyd-Scuseria-Ernzerhof 2006
 (JCP 125, 224106, 2006)
xc_check: WARNING: Pseudopotential generated with GGA PBE functional
V l=0 = -2*Zval/r beyond r=  2.7826
V l=1 = -2*Zval/r beyond r=  2.7826
V l=2 = -2*Zval/r beyond r=  2.7826
V l=3 = -2*Zval/r beyond r=  2.7826
All V_l potentials equal beyond r=  1.8652
This should be close to max(r_c) in ps generation
All pots = -2*Zval/r beyond r=  2.7826
Using large-core scheme for Vlocal

atom: Estimated core radius    2.78258

atom: Including non-local core corrections could be a good idea
atom: Maximum radius for 4*pi*r*r*local-pseudopot. charge    3.07525
atom: Maximum radius for r*vlocal+2*Zval:    2.81758
GHOST: No ghost state for L =  0
GHOST: No ghost state for L =  1
GHOST: No ghost state for L =  2
GHOST: No ghost state for L =  3

KBgen: Kleinman-Bylander projectors: 
   l= 0   rc=  1.936440   el= -0.791474   Ekb=  4.527346   kbcos=  0.300929
   l= 1   rc=  1.936440   el= -0.300649   Ekb=  1.471620   kbcos=  0.304055
   l= 2   rc=  1.936440   el=  0.001958   Ekb= -2.865202   kbcos= -0.050894
   l= 3   rc=  1.936440   el=  0.003046   Ekb= -0.889187   kbcos= -0.005274

KBgen: Total number of Kleinman-Bylander projectors:   16
atom: -------------------------------------------------------------------------

atom: SANKEY-TYPE ORBITALS:
atom: Selected multiple-zeta basis: split     

SPLIT: Orbitals with angular momentum L= 0

SPLIT: Basis orbitals for state 3s

SPLIT: PAO cut-off radius determined from an
SPLIT: energy shift=  0.020000 Ry

   izeta = 1
                 lambda =    1.000000
                     rc =    5.007352
                 energy =   -0.772769
                kinetic =    0.573186
    potential(screened) =   -1.345955
       potential(ionic) =   -3.804540

   izeta = 2
                 rmatch =    4.418952
              splitnorm =    0.150000
                 energy =   -0.675735
                kinetic =    0.871891
    potential(screened) =   -1.547626
       potential(ionic) =   -4.104120

SPLIT: Orbitals with angular momentum L= 1

SPLIT: Basis orbitals for state 3p

SPLIT: PAO cut-off radius determined from an
SPLIT: energy shift=  0.020000 Ry

   izeta = 1
                 lambda =    1.000000
                     rc =    6.270866
                 energy =   -0.282609
                kinetic =    0.876409
    potential(screened) =   -1.159018
       potential(ionic) =   -3.411547

   izeta = 2
                 rmatch =    5.007352
              splitnorm =    0.150000
                 energy =   -0.188900
                kinetic =    1.263886
    potential(screened) =   -1.452786
       potential(ionic) =   -3.887248

POLgen: Perturbative polarization orbital with L=  2

POLgen: Polarization orbital for state 3p

   izeta = 1
                     rc =    6.270866
                 energy =    0.439455
                kinetic =    1.304724
    potential(screened) =   -0.865269
       potential(ionic) =   -2.934348
atom: Total number of Sankey-type orbitals: 13

atm_pop: Valence configuration (for local Pseudopot. screening):
 3s( 2.00)                                                            
 3p( 2.00)                                                            
Vna: chval, zval:    4.00000   4.00000

Vna:  Cut-off radius for the neutral-atom potential:   6.270866

atom: _________________________________________________________________________

prinput: Basis input ----------------------------------------------------------

PAO.BasisType split     

%block ChemicalSpeciesLabel
    1   14 Si                      # Species index, atomic number, species label
%endblock ChemicalSpeciesLabel

%block PAO.Basis                 # Define Basis set
Si                    2                    # Species label, number of l-shells
 n=3   0   2                         # n, l, Nzeta 
   5.007      4.419   
   1.000      1.000   
 n=3   1   2 P   1                   # n, l, Nzeta, Polarization, NzetaPol
   6.271      5.007   
   1.000      1.000   
%endblock PAO.Basis

prinput: ----------------------------------------------------------------------

************************ Begin: HYBRID XC INITIALIZATION **********************

           1           0 F           5
nao2gto_gaussfit: Fitting of the radial part of NAO to Gaussians not converged:
nao2gto_gaussfit: error, tolerance:      0.00850     0.00100
nao2gto_transfer: species, orbital, gauss, exp, coef, epsilon, error =     1    1    1     0.17954     0.76653     0.00000    0    F
nao2gto_transfer: species, orbital, gauss, exp, coef, epsilon, error =     1    1    2     1.42857    -0.73830     0.00000    0    F
nao2gto_transfer: species, orbital, gauss, exp, coef, epsilon, error =     1    1    3     2.00000    -1.00457     0.00000    0    F
nao2gto_transfer: species, orbital, gauss, exp, coef, epsilon, error =     1    1    4     2.80000     1.98244     0.00000    0    F
nao2gto_transfer: species, orbital, gauss, exp, coef, epsilon, error =     1    1    5     3.92000    -0.73662     0.00000    0    F
           2           0 F           5
nao2gto_gaussfit: Fitting of the radial part of NAO to Gaussians not converged:
nao2gto_gaussfit: error, tolerance:      0.00524     0.00100
nao2gto_transfer: species, orbital, gauss, exp, coef, epsilon, error =     1    2    1     0.33501     2.74592     0.00000    0    F
nao2gto_transfer: species, orbital, gauss, exp, coef, epsilon, error =     1    2    2     0.46901    -2.05968     0.00000    0    F
nao2gto_transfer: species, orbital, gauss, exp, coef, epsilon, error =     1    2    3     1.88379    -2.76763     0.00000    0    F
nao2gto_transfer: species, orbital, gauss, exp, coef, epsilon, error =     1    2    4     2.63730     3.38587     0.00000    0    F
nao2gto_transfer: species, orbital, gauss, exp, coef, epsilon, error =     1    2    5     3.69223    -1.09110     0.00000    0    F
           3           1 F           4
nao2gto_gaussfit: Fitting of the radial part of NAO to Gaussians not converged:
nao2gto_gaussfit: error, tolerance:      0.00188     0.00100
nao2gto_transfer: species, orbital, gauss, exp, coef, epsilon, error =     1    3    1     0.15000     0.23648     0.00000    0    F
nao2gto_transfer: species, orbital, gauss, exp, coef, epsilon, error =     1    3    2     0.68447     0.80327     0.00000    0    F
nao2gto_transfer: species, orbital, gauss, exp, coef, epsilon, error =     1    3    3     0.95826    -0.96100     0.00000    0    F
nao2gto_transfer: species, orbital, gauss, exp, coef, epsilon, error =     1    3    4     1.34156     0.31103     0.00000    0    F
           4           1 F           4
nao2gto_gaussfit: Fitting of the radial part of NAO to Gaussians not converged:
nao2gto_gaussfit: error, tolerance:      0.00150     0.00100
nao2gto_transfer: species, orbital, gauss, exp, coef, epsilon, error =     1    4    1     0.24464     0.48642     0.00000    0    F
nao2gto_transfer: species, orbital, gauss, exp, coef, epsilon, error =     1    4    2     0.90520     0.36196     0.00000    0    F
nao2gto_transfer: species, orbital, gauss, exp, coef, epsilon, error =     1    4    3     1.26729    -0.57092     0.00000    0    F
nao2gto_transfer: species, orbital, gauss, exp, coef, epsilon, error =     1    4    4     1.77420     0.21918     0.00000    0    F
           5           2 T           3
nao2gto_gaussfit: Fitting of the radial part of NAO to Gaussians not converged:
nao2gto_gaussfit: error, tolerance:      0.01119     0.00100
nao2gto_transfer: species, orbital, gauss, exp, coef, epsilon, error =     1    5    1     0.25697     0.20415     0.00000    0    F
nao2gto_transfer: species, orbital, gauss, exp, coef, epsilon, error =     1    5    2     2.07856     0.08974     0.00000    0    F
nao2gto_transfer: species, orbital, gauss, exp, coef, epsilon, error =     1    5    3   102.00000     0.05670     0.00000    0    F
nao2gto_transfer: isp, inlz, ipgf, pgf_radius =     1    1    1     7.16230
nao2gto_transfer: isp, inlz, ipgf, pgf_radius =     1    1    2     2.53914
nao2gto_transfer: isp, inlz, ipgf, pgf_radius =     1    1    3     2.14597
nao2gto_transfer: isp, inlz, ipgf, pgf_radius =     1    1    4     1.81367
nao2gto_transfer: isp, inlz, ipgf, pgf_radius =     1    1    5     1.53283
nao2gto_transfer: isp, inlz, shell_radius =     1    1     7.16230     5.00735
nao2gto_transfer: isp, inlz, ipgf, pgf_radius =     1    2    1     5.24335
nao2gto_transfer: isp, inlz, ipgf, pgf_radius =     1    2    2     4.43144
nao2gto_transfer: isp, inlz, ipgf, pgf_radius =     1    2    3     2.21117
nao2gto_transfer: isp, inlz, ipgf, pgf_radius =     1    2    4     1.86878
nao2gto_transfer: isp, inlz, ipgf, pgf_radius =     1    2    5     1.57941
nao2gto_transfer: isp, inlz, shell_radius =     1    2     5.24335     4.41895
nao2gto_transfer: isp, inlz, ipgf, pgf_radius =     1    3    1     8.70808
nao2gto_transfer: isp, inlz, ipgf, pgf_radius =     1    3    2     3.93144
nao2gto_transfer: isp, inlz, ipgf, pgf_radius =     1    3    3     3.29482
nao2gto_transfer: isp, inlz, ipgf, pgf_radius =     1    3    4     2.76086
nao2gto_transfer: isp, inlz, shell_radius =     1    3     8.70808     6.27087
nao2gto_transfer: isp, inlz, ipgf, pgf_radius =     1    4    1     6.74165
nao2gto_transfer: isp, inlz, ipgf, pgf_radius =     1    4    2     3.39487
nao2gto_transfer: isp, inlz, ipgf, pgf_radius =     1    4    3     2.84477
nao2gto_transfer: isp, inlz, ipgf, pgf_radius =     1    4    4     2.38344
nao2gto_transfer: isp, inlz, shell_radius =     1    4     6.74165     5.00735
nao2gto_transfer: isp, inlz, ipgf, pgf_radius =     1    5    1     7.15225
nao2gto_transfer: isp, inlz, ipgf, pgf_radius =     1    5    2     2.28621
nao2gto_transfer: isp, inlz, ipgf, pgf_radius =     1    5    3     0.25145
nao2gto_transfer: isp, inlz, shell_radius =     1    5     7.15225     6.27087
nao2gto_transfer: isp, kind_radius =     1     8.70808

nao2gto_print_info: NAO2GTO fitting information -------------------------------

# %%% HYBRID XC FDF BEGIN

# XC parameters with a short-range EXX potential
XC.functional   GGA
XC.authors      HSE06

# The NAO2GTO block is structured as following:
#
#     species1 norbs_species1
#     n1 l1 zeta1 ngaussians_orbital1
#     exponent_gaussian1 coefficient_gaussian1
#     exponent_gaussian2 coefficient_gaussian2
#     exponent_gaussian3 coefficient_gaussian3
#     ...
#     n2 l2 zeta2 ngaussians_orbital2
#     exponent_gaussian1 coefficient_gaussian1
#     ...
#     species2 norbs_species2
#     ...
#
%block NAO2GTO
Si   5
3  0  1  5
    0.17954376E+00     0.76652982E+00
    0.14285715E+01    -0.73830251E+00
    0.20000000E+01    -0.10045666E+01
    0.28000000E+01     0.19824365E+01
    0.39199999E+01    -0.73661644E+00
3  0  2  5
    0.33500955E+00     0.27459193E+01
    0.46901337E+00    -0.20596831E+01
    0.18837889E+01    -0.27676265E+01
    0.26373044E+01     0.33858726E+01
    0.36922261E+01    -0.10911006E+01
3  1  1  4
    0.15000000E+00     0.23647675E+00
    0.68447086E+00     0.80326537E+00
    0.95825918E+00    -0.96100270E+00
    0.13415628E+01     0.31103272E+00
3  1  2  4
    0.24463563E+00     0.48642249E+00
    0.90520475E+00     0.36195577E+00
    0.12672866E+01    -0.57091873E+00
    0.17742013E+01     0.21917690E+00
3  2  1  3
    0.25696986E+00     0.20414666E+00
    0.20785643E+01     0.89743381E-01
    0.10200000E+03     0.56704347E-01
%endblock NAO2GTO

# Hartree-Fock exchange options
HFX.UseFittedNAOs                    T
HFX.TruncateDM                    T
HFX.DumpFitData                   T
HFX.FarField                      T
HFX.FitDataPoints               500
HFX.FarFieldTolerance     0.100E-05
HFX.PairListTolerance     0.100E-05
HFX.SchwarzTolerance      0.100E-05
HFX.StoreERIsTolerance    0.100E-05
HFX.Omega                 0.110E+00
HFX.MinimumNumberGaussians                  3
HFX.MaximumNumberGaussians                  3
HFX.SeparationExponents                 0.140E+01
HFX.ToleranceFit                 0.100E-02
HFX.GaussianEPS                 0.100E-03
HFX.Dynamic_parallel                    F
HFX.FragSize                   F

# %%% HYBRID XC FDF END

nao2gto_print_info: END -------------------------------------------------------

Si   5
************************ End: HYBRID XC INITIALIZATION ************************

coor:   Atomic-coordinates input format  =     Fractional

siesta: Atomic coordinates (Bohr) and species
siesta:      0.00000   0.00000   0.00000  1        1
siesta:      2.56530   2.56530   2.56530  1        2

siesta: System type = bulk      

initatomlists: Number of atoms, orbitals, and projectors:      2    26    32

siesta: ******************** Simulation parameters ****************************
siesta:
siesta: The following are some of the parameters of the simulation.
siesta: A complete list of the parameters used, including default values,
siesta: can be found in file out.fdf
siesta:
redata: Spin configuration                          = none
redata: Number of spin components                   = 1
redata: Time-Reversal Symmetry                      = T
redata: Spin spiral                                 = F
redata: Long output                                 =   F
redata: Number of Atomic Species                    =        1
redata: Charge density info will appear in .RHO file
redata: Write Mulliken Pop.                         = NO
redata: Matel table size (NRTAB)                    =     1024
redata: Mesh Cutoff                                 =   250.0000 Ry
redata: Net charge of the system                    =     0.0000 |e|
redata: Min. number of SCF Iter                     =        0
redata: Max. number of SCF Iter                     =       50
redata: SCF convergence failure will abort job
redata: SCF mix quantity                            = Hamiltonian
redata: Mix DM or H after convergence               =   F
redata: Recompute H after scf cycle                 =   F
redata: Mix DM in first SCF step                    =   T
redata: Write Pulay info on disk                    =   F
redata: New DM Occupancy tolerance                  = 0.000000000001
redata: No kicks to SCF
redata: DM Mixing Weight for Kicks                  =     0.5000
redata: Require Harris convergence for SCF          =   F
redata: Harris energy tolerance for SCF             =     0.000100 eV
redata: Require DM convergence for SCF              =   T
redata: DM tolerance for SCF                        =     0.000100
redata: Require EDM convergence for SCF             =   F
redata: EDM tolerance for SCF                       =     0.001000 eV
redata: Require H convergence for SCF               =   T
redata: Hamiltonian tolerance for SCF               =     0.001000 eV
redata: Require (free) Energy convergence for SCF   =   F
redata: (free) Energy tolerance for SCF             =     0.000100 eV
redata: Using Saved Data (generic)                  =   F
redata: Use continuation files for DM               =   F
redata: Neglect nonoverlap interactions             =   F
redata: Method of Calculation                       = Diagonalization
redata: Electronic Temperature                      =   290.1109 K
redata: Fix the spin of the system                  =   F
redata: Dynamics option                             = Single-point calculation
mix.SCF: Pulay mixing                            = Pulay
mix.SCF:    Variant                              = stable
mix.SCF:    History steps                        = 6
mix.SCF:    Linear mixing weight                 =     0.200000
mix.SCF:    Mixing weight                        =     0.200000
mix.SCF:    SVD condition                        = 0.1000E-07
redata: ***********************************************************************

%block SCF.Mixers
  Pulay
%endblock SCF.Mixers

%block SCF.Mixer.Pulay
  # Mixing method
  method pulay
  variant stable

  # Mixing options
  weight 0.2000
  weight.linear 0.2000
  history 6
%endblock SCF.Mixer.Pulay
 
DM_history_depth set to one: no extrapolation allowed by default for geometry relaxation
Size of DM history Fstack: 1
Total number of electrons:     8.000000
Total ionic charge:     8.000000

* ProcessorY, Blocksize:    3   2


* Orbital distribution balance (max,min):     4     2

 Kpoints in:          500 . Kpoints trimmed:          500

siesta: k-grid: Number of k-points =   500
siesta: k-grid: Cutoff (effective) =    19.198 Ang
siesta: k-grid: Supercell and displacements
siesta: k-grid:   10   0   0      0.500
siesta: k-grid:    0  10   0      0.500
siesta: k-grid:    0   0  10      0.500
 
diag: Algorithm                                     = D&C
diag: Parallel over k                               =   F
diag: Use parallel 2D distribution                  =   T
diag: Parallel block-size                           = 2
diag: Parallel distribution                         =     3 x     4
diag: Used triangular part                          = Lower
diag: Absolute tolerance                            =  0.100E-15
diag: Orthogonalization factor                      =  0.100E-05
diag: Memory factor                                 =  1.0000
Using current reciprocal lattice vectors for BandLinesScale
Beware any cell changes by the end of the run
Using current reciprocal lattice vectors for BandLinesScale
Beware any cell changes by the end of the run

superc: Internal auxiliary supercell:     7 x     7 x     7  =     343
superc: Number of atoms, orbitals, and projectors:    686   8918  10976
 
 
ts: **************************************************************
ts: Save H and S matrices                           =    F
ts: Save DM and EDM matrices                        =    F
ts: Only save the overlap matrix S                  =    F
ts: **************************************************************
 
************************ Begin: TS CHECKS AND WARNINGS ************************
************************ End: TS CHECKS AND WARNINGS **************************


                     ====================================
                        Single-point calculation
                     ====================================

outcoor: Atomic coordinates (fractional):                   
    0.00000000    0.00000000    0.00000000   1       1  Si
    0.25000000    0.25000000    0.25000000   1       2  Si

superc: Internal auxiliary supercell:     7 x     7 x     7  =     343
superc: Number of atoms, orbitals, and projectors:    686   8918  10976

outcell: Unit cell vectors (Ang):
        0.000000    2.715000    2.715000
        2.715000    0.000000    2.715000
        2.715000    2.715000    0.000000

outcell: Cell vector modules (Ang)   :    3.839590    3.839590    3.839590
outcell: Cell angles (23,13,12) (deg):     60.0000     60.0000     60.0000
outcell: Cell volume (Ang**3)        :     40.0258
<dSpData1D:S at geom step 0
  <sparsity:sparsity for geom step 0
    nrows_g=26 nrows=4 sparsity=9.4734 nnzs=6404, refcount: 7>
  <dData1D:(new from dSpData1D) n=6404, refcount: 1>
refcount: 1>
new_DM -- step:     1
Initializing Density Matrix...
DM filled with atomic data:
<dSpData2D:DM initialized from atoms
  <sparsity:sparsity for geom step 0
    nrows_g=26 nrows=4 sparsity=9.4734 nnzs=6404, refcount: 8>
  <dData2D:DM n=6404 m=1, refcount: 1>
refcount: 1>
calc_prescreen_eri: max_eri_prescreen      0.85612557E+00
init_prescreen_eri: nelem_ij =       120393
init_prescreen_eri: nelem_kl =     41294799
init_prescreen_eri: list_ij  :         1486
init_prescreen_eri: list_kl  :       509698
init_prescreen_eri: max_eri =         0.856126E+00
No. of atoms with KB's overlaping orbs in proc 0. Max # of overlaps:      38     371
New grid distribution:   1
           1       1:   15    1:    5    1:    4
           2       1:   15    1:    5    5:    8
           3       1:   15    1:    5    9:   12
           4       1:   15    1:    5   13:   15
           5       1:   15    6:   10    1:    4
           6       1:   15    6:   10    5:    8
           7       1:   15    6:   10    9:   12
           8       1:   15    6:   10   13:   15
           9       1:   15   11:   15    1:    4
          10       1:   15   11:   15    5:    8
          11       1:   15   11:   15    9:   12
          12       1:   15   11:   15   13:   15

InitMesh: MESH =    30 x    30 x    30 =       27000
InitMesh: (bp) =    15 x    15 x    15 =        3375
InitMesh: Mesh cutoff (required, used) =   250.000   253.085 Ry
ExtMesh (bp) on 0 =   107 x    97 x    96 =      996384
New grid distribution:   2
           1       6:   15    1:    8    1:    3
           2       6:   15    1:    8    4:    7
           3       6:   15    1:    7    8:   11
           4       6:   15    1:    7   12:   15
           5       1:    5    1:    8    1:    7
           6       1:    5    9:   15    1:    7
           7       6:   15    8:   15    8:   11
           8       6:   15    8:   15   12:   15
           9       1:    5    1:    7    8:   15
          10       6:   15    9:   15    4:    7
          11       1:    5    8:   15    8:   15
          12       6:   15    9:   15    1:    3
New grid distribution:   3
           1       6:   15    1:    8    1:    4
           2       6:   15    1:    8    5:    8
           3       6:   15    9:   15    5:    8
           4       6:   15    1:    8   13:   15
           5       6:   15    9:   15    1:    4
           6       6:   15    9:   15   13:   15
           7       6:   15    1:    8    9:   12
           8       1:    5    1:    8    9:   15
           9       1:    5    1:    8    1:    8
          10       1:    5    9:   15    1:    8
          11       6:   15    9:   15    9:   12
          12       1:    5    9:   15    9:   15
Setting up quadratic distribution...
ExtMesh (bp) on 0 =   102 x   100 x    95 =      969000
PhiOnMesh: Number of (b)points on node 0 =                  240
PhiOnMesh: nlist on node 0 =                42324
setup_hfx: call #0001
 Static parallel NAO2GTO
 setup_hfx: HFX energy:        -11.575499  eV

stepf: Fermi-Dirac step function
setup_hfx: call #0002
 Static parallel NAO2GTO
 setup_hfx: HFX energy:        -11.220348  eV

siesta: Program's energy decomposition (eV):
siesta: Ebs     =       -80.714401
siesta: Eions   =       373.536546
siesta: Ena     =       110.804011
siesta: Ekin    =        81.719095
siesta: Enl     =        28.581697
siesta: Eso     =         0.000000
siesta: Edftu   =         0.000000
siesta: DEna    =         3.962676
siesta: DUscf   =         0.271059
siesta: DUext   =         0.000000
siesta: Exc     =       -65.538214
siesta: eta*DQ  =         0.000000
siesta: Emadel  =         0.000000
siesta: Emeta   =         0.000000
siesta: Emolmec =         0.000000
siesta: Ekinion =         0.000000
siesta: Eharris =      -214.599459
siesta: Etot    =      -213.736223
siesta: FreeEng =      -213.736223

        iscf     Eharris(eV)        E_KS(eV)     FreeEng(eV)     dDmax    Ef(eV) dHmax(eV)
   scf:    1     -214.599459     -213.736223     -213.736223  1.473104 -3.590046  0.582240
timer: Routine,Calls,Time,% = IterSCF        1      72.520  71.90
setup_hfx: call #0003
 Static parallel NAO2GTO
 setup_hfx: HFX energy:        -11.231462  eV
   scf:    2     -213.754852     -213.745501     -213.745501  0.008063 -3.750458  0.473238
setup_hfx: call #0004
 Static parallel NAO2GTO
 setup_hfx: HFX energy:        -11.275982  eV
   scf:    3     -213.783150     -213.763583     -213.763583  0.030967 -3.679703  0.012754
setup_hfx: call #0005
 Static parallel NAO2GTO
 setup_hfx: HFX energy:        -11.276665  eV
   scf:    4     -213.763645     -213.763593     -213.763593  0.000695 -3.830651  0.003827
setup_hfx: call #0006
 Static parallel NAO2GTO
 setup_hfx: HFX energy:        -11.277091  eV
   scf:    5     -213.763604     -213.763599     -213.763599  0.000361 -3.863993  0.000624
setup_hfx: call #0007
 Static parallel NAO2GTO
 setup_hfx: HFX energy:        -11.277313  eV
   scf:    6     -213.763601     -213.763601     -213.763601  0.000333 -3.878534  0.000027
setup_hfx: call #0008
 Static parallel NAO2GTO
 setup_hfx: HFX energy:        -11.277322  eV
   scf:    7     -213.763602     -213.763602     -213.763602  0.000022 -3.878402  0.000021

SCF Convergence by DM+H criterion
max |DM_out - DM_in|         :     0.0000215308
max |H_out - H_in|      (eV) :     0.0000213935
SCF cycle converged after 7 iterations

Using DM_out to compute the final energy and forces
No. of atoms with KB's overlaping orbs in proc 0. Max # of overlaps:      38     371
setup_hfx: call #0009
 Static parallel NAO2GTO
 setup_hfx: HFX energy:        -11.277322  eV

siesta: E_KS(eV) =             -213.7636

siesta: E_KS - E_eggbox =      -213.7636

siesta: Atomic forces (eV/Ang):
     1   -0.000337   -0.000346   -0.000318
     2    0.000339    0.000347    0.000319
----------------------------------------
   Tot    0.000002    0.000001    0.000002
----------------------------------------
   Max    0.000347
   Res    0.000335    sqrt( Sum f_i^2 / 3N )
----------------------------------------
   Max    0.000347    constrained

Stress tensor Voigt[x,y,z,yz,xz,xy] (kbar):     -401.31     -401.31     -401.31        0.01        0.01        0.01
(Free)E + p*V (eV/cell)     -203.7382
Target enthalpy (eV/cell)     -213.7636
Computing bands...

siesta: Program's energy decomposition (eV):
siesta: Ebs     =       -80.670520
siesta: Eions   =       373.536546
siesta: Ena     =       110.804011
siesta: Ekin    =        81.939944
siesta: Enl     =        28.231251
siesta: Eso     =         0.000000
siesta: Edftu   =         0.000000
siesta: DEna    =         4.129163
siesta: DUscf   =         0.315219
siesta: DUext   =         0.000000
siesta: Exc     =       -65.646643
siesta: eta*DQ  =         0.000000
siesta: Emadel  =         0.000000
siesta: Emeta   =         0.000000
siesta: Emolmec =         0.000000
siesta: Ekinion =         0.000000
siesta: Eharris =      -213.763602
siesta: Etot    =      -213.763602
siesta: FreeEng =      -213.763602

siesta: Final energy (eV):
siesta:  Band Struct. =     -80.670520
siesta:       Kinetic =      81.939944
siesta:       Hartree =      15.039252
siesta:       Edftu   =       0.000000
siesta:       Eso     =       0.000000
siesta:    Ext. field =       0.000000
siesta:   Exch.-corr. =     -65.646643
siesta:  Ion-electron =    -100.490814
siesta:       Ion-ion =    -144.605340
siesta:       Ekinion =       0.000000
siesta:         Total =    -213.763602
siesta:         Fermi =      -3.878402

siesta: Stress tensor (static) (eV/Ang**3):
siesta:    -0.250474    0.000008    0.000009
siesta:     0.000008   -0.250473    0.000009
siesta:     0.000008    0.000008   -0.250478

siesta: Cell volume =         40.025752 Ang**3

siesta: Pressure (static):
siesta:                Solid            Molecule  Units
siesta:           0.00272799          0.00272787  Ry/Bohr**3
siesta:           0.25047503          0.25046369  eV/Ang**3
siesta:         401.30958381        401.29140958  kBar
(Free)E+ p_basis*V_orbitals  =        -210.905741
(Free)Eharris+ p_basis*V_orbitals  =        -210.905741

cite: Please see "Sibulk.bib" for an exhaustive BiBTeX file.
cite: Please clearly indicate Siesta version in published work: 4.1.5
cite: This calculation has made use of the following articles
cite: which are encouraged to be cited in a published work.
        Primary SIESTA paper
          DOI: www.doi.org/10.1088/0953-8984/14/11/302
 
>> End of run:   8-JAN-2023  19:52:18
Job completed
