
#FDF: Opened INPUT_TMP.30190      for input. Unit: 12

fdf-debug              0     # Default value
SystemName     TiO2, rutile structure.                                                                                                             
SystemLabel     TiO2                                                                                                                                
XML.Write              T     # Default value
Write.XML              T     # Default value
XML.AbortOnErrors              F     # Default value
XML.AbortOnWarnings              F     # Default value
alloc_report_level              0     # Default value
xc.functional     GGA                                                                                                                                 
xc.authors     HSE06                                                                                                                               
MM.Cutoff          30.00000000     Bohr     # Default value
MM.UnitsEnergy     eV     # Default value
MM.UnitsDistance     Ang     # Default value
WriteIonPlotFiles              T
Atom.Debug.KB.Generation              F     # Default value
user-basis              F     # Default value
user-basis-netcdf              F     # Default value
ReparametrizePseudos              F     # Default value
Restricted.Radial.Grid              T     # Default value
Rmax.Radial.Grid          0.000000000         # Default value
PAO.BasisSize     standard            # Default value
PAO.BasisType     split          # Default value
PAO.SoftDefault              F     # Default value
PAO.SoftInnerRadius         0.9000000000         # Default value
PAO.SoftPotential          40.00000000         # Default value
PAO.SplitNorm         0.1500000000         # Default value
PAO.SplitNormH         -1.000000000         # Default value
Number_of_species                        2

%block ChemicalSpeciesLabel                                                    
      1      22     Ti                                                         
      2       8     O                                                          
%endblock ChemicalSpeciesLabel                                                 
 

%block PAO.Basis                                                               
Ti    5      2.0345829                                                         
 n=3    0    1   E     83.6767677       2.7383082                              
   3.6693821                                                                   
   1.00000000000000                                                            
 n=4    0    2   E     101.4085969       4.8177690                             
   5.2616626            3.2826160                                              
   1.00000000000000        1.00000000000000                                    
 n=3    1    1   E     19.7689470       2.5835443                              
   3.9726775                                                                   
   1.00000000000000                                                            
 n=4    1    1   E     98.6765931       2.1236661                              
   3.6530292                                                                   
   1.00000000000000                                                            
 n=3    2    2   E     53.8948464       4.2974121                              
    5.0381797            3.1486843                                             
   1.00000000000000        1.00000000000000                                    
O     3     -.5074421                                                          
 n=2    0    2   E      40.5163425       3.7494516                             
   4.3573191            2.8372895                                              
   1.00000000000000        1.00000000000000                                    
 n=2    1    2   E      36.6791481       3.7987264                             
   5.1791638            3.7253647                                              
   1.00000000000000        1.00000000000000                                    
 n=3    2    1   E      20.9602331       1.3492424                             
   3.0497870                                                                   
   1.00000000000000                                                            
%endblock PAO.Basis                                                            
 

%block PS.lmax                                                                 
   Ti    3                                                                     
    O    3                                                                     
%endblock PS.lmax                                                              
 
FilterCutoff          0.000000000     Ry     # Default value
FilterTol          0.000000000     Ry     # Default value
KB.Rmax          6.000000000     Bohr     # Default value
PAO.EnergyShift         0.2000000000E-01 Ry     # Default value
PAO.SplitTailNorm              F     # Default value
PAO.FixSplitTable              F     # Default value
PAO.NewSplitCode              F     # Default value
PAO.Filter              F     # Default value
PAO.Filter              F     # Default value
PAO.Filter              F     # Default value
PAO.Filter              F     # Default value
PAO.Filter              F     # Default value
PAO.Filter              F     # Default value
PAO.Filter              F     # Default value
PAO.OldStylePolorbs              T     # Default value
PAO.SplitTailNorm              F     # Default value
PAO.FixSplitTable              F     # Default value
PAO.NewSplitCode              F     # Default value
Vna.Filter              F     # Default value
PCC.Filter              F     # Default value
FilterCutoff          0.000000000     Ry     # Default value
FilterTol          0.000000000     Ry     # Default value
KB.Rmax          6.000000000     Bohr     # Default value
PAO.EnergyShift         0.2000000000E-01 Ry     # Default value
PAO.SplitTailNorm              F     # Default value
PAO.FixSplitTable              F     # Default value
PAO.NewSplitCode              F     # Default value
PAO.Filter              F     # Default value
PAO.Filter              F     # Default value
PAO.Filter              F     # Default value
PAO.Filter              F     # Default value
PAO.Filter              F     # Default value
PAO.OldStylePolorbs              T     # Default value
PAO.SplitTailNorm              F     # Default value
PAO.FixSplitTable              F     # Default value
PAO.NewSplitCode              F     # Default value
Vna.Filter              F     # Default value
PCC.Filter              F     # Default value
PAO.BasisType     split          # Default value
HFX.DumpFitData              T
HFX.FitDataPoints                      500
HFX.MaximumNumberGaussians-S              6     # Default value
HFX.MaximumNumberGaussians-P              6     # Default value
HFX.MaximumNumberGaussians-D              6     # Default value
HFX.ToleranceFit         0.1000000000E-02
HFX.SeparationExponents          1.400000000    
HFX.GaussianEPS         0.1000000000E-04

%block NAO2GTO                                                                 
Ti   7                                                                         
3  0  1  5                                                                     
    0.49203199E+00     0.79732003E+00                                          
    0.14577260E+01     0.44359165E+01                                          
    0.20408164E+01    -0.32221986E+01                                          
    0.28571429E+01    -0.17884217E+01                                          
    0.40000000E+01     0.13076243E+01                                          
4  0  1  5                                                                     
    0.19533627E+00    -0.24010055E+01                                          
    0.27347078E+00     0.23184128E+01                                          
    0.17425747E+01     0.43645876E+01                                          
    0.24396045E+01    -0.46648239E+01                                          
    0.34154462E+01     0.13194612E+01                                          
4  0  2  5                                                                     
    0.62950942E+00    -0.18755778E+02                                          
    0.88131317E+00     0.52654236E+02                                          
    0.12338384E+01    -0.65438688E+02                                          
    0.17273738E+01     0.47594744E+02                                          
    0.24183232E+01    -0.13479616E+02                                          
3  1  1  3                                                                     
0.552001354053265      0.730345175874573                                       
4.32705508804188       -0.284123677310724                                      
1.60555475567057       2.97516756165431                                        
4  1  1  4                                                                     
    0.57827367E+00    -0.51486511E+01                                          
    0.80958313E+00     0.71017386E+01                                          
    0.31548145E+01     0.28606254E+01                                          
    0.44167402E+01    -0.14352164E+01                                          
3  2  1  4                                                                     
0.330866571074327      0.17864807160686                                        
6.65509839634718       -1.03276730765004                                       
3.2827256134639        6.82773157744008                                        
1.09901679197456       1.41107399473128                                        
3  2  2  4                                                                     
0.689195064082229      0.829280129806296                                       
1.87470008147885       2.46867016140883                                        
5.21624665118724       -5.24885435464808                                       
4.03424862850695       10.3718164116568                                        
O   5                                                                          
2  0  1  5                                                                     
4.13969327531419       17.8517889785121                                        
0.813524221624063      1.05544869844859                                        
0.26356283523924       0.511716302225971                                       
3.71709846118363       -36.6455997458304                                       
3.31964661491497       18.4274040828819                                        
2  0  2  5                                                                     
1.12924238829874       75.8653711360624                                        
1.40861991323814       72.7518795764575                                        
3.89733938549867       34.8165245433104                                        
1.24855706899024       -143.16182270615                                        
3.7379375989639        -38.8950205037079                                       
2  1  1  4                                                                     
3.97724481404075       3.71587474310853                                        
1.07184239957366       1.40154046038399                                        
9.67716961909106       -0.475766355971558                                      
0.245785749776917      0.289484324753684                                       
2  1  2  4                                                                     
0.456998833473644      0.663017266106266                                       
1.54021978311553       1.89672498574229                                        
5.66425136770417       52.8313039006616                                        
5.81048718488705       -49.6736080862657                                       
3  2  1  3                                                                     
1.48619546790924       -17.9822526709869                                       
1.58657873370156       17.5010607294238                                        
0.78441276292696       2.4935628702104                                         
%endblock NAO2GTO                                                              
 
HFX.UseFittedNAOs              T
Atom-Setup-Only              F     # Default value
UseStructFile              F     # Default value
MD.UseStructFile              F     # Default value
LatticeConstant          1.889726878           Bohr
# Above item originally: LatticeConstant          1.000000000     Ang       

%block LatticeVectors                                                          
        4.594         0.0000000000         0.0000000000                        
        0.0000000000         4.594         0.0000000000                        
        0.0000000000         0.0000000000         2.964                        
%endblock LatticeVectors                                                       
 

%block LatticeVectors                                                          
        4.594         0.0000000000         0.0000000000                        
        0.0000000000         4.594         0.0000000000                        
        0.0000000000         0.0000000000         2.964                        
%endblock LatticeVectors                                                       
 
AtomicCoordinatesFormat     Fractional                                                                                                                          
NumberOfAtoms                        6
ZM.UnitsLength     Bohr           # Default value
ZM.UnitsAngle     rad            # Default value
ZM.ForceTolLength         0.1555740000E-02 Ry/Bohr     # Default value
ZM.ForceTolAngle         0.3565490000E-02 Ry/rad     # Default value
ZM.MaxDisplLength         0.2000000000     Bohr     # Default value
ZM.MaxDisplAngle         0.3000000000E-02 rad     # Default value
ZM.CalcAllForces              F     # Default value

%block AtomicCoordinatesAndAtomicSpecies                                       
0.00000000      0.0000000       0.000000000  1                                 
0.50000000      0.5000000       0.500000000  1                                 
0.30500000      0.3050000       0.000000000  2                                 
0.69500000      0.6950000       0.000000000  2                                 
0.19500000      0.8050000       0.500000000  2                                 
0.80500000      0.1950000       0.500000000  2                                 
%endblock AtomicCoordinatesAndAtomicSpecies                                    
 
UseSaveData              F     # Default value
MD.UseSaveXV              F
MD.UseSaveZM              F     # Default value
WriteCoorInitial              T     # Default value
MD.TypeOfRun     cg                                                                                                                                  
MaxBondDistance          6.000000000     Bohr     # Default value
Output-Structure-Only              F     # Default value
SpinPolarized              F
NonCollinearSpin              F     # Default value
LongOutput              F     # Default value
WriteDenchar              F     # Default value
WriteMullikenPop              0     # Default value
WriteHirshfeldPop              F     # Default value
WriteVoronoiPop              F     # Default value
PartialChargesAtEveryGeometry              F     # Default value
PartialChargesAtEveryScfStep              F     # Default value
MeshCutoff          250.0000000             Ry
# Above item originally: MeshCutoff          250.0000000     Ry        
NetCharge          0.000000000         # Default value
MaxSCFIterations                      200
SCFMustConverge              F     # Default value
DM.NumberPulay                        6
DM.NumberBroyden              0     # Default value
DM.FIRE.Mixing              F     # Default value
DM.MixSCF1              F     # Default value
DM.PulayOnFile              F     # Default value
DM.Pulay.Avoid.First.After.Kick              F     # Default value
DM.MixingWeight         0.2000000000    
DM.OccupancyTolerance         0.1000000000E-11     # Default value
DM.NumberKick              0     # Default value
DM.KickMixingWeight         0.5000000000         # Default value
DM.Tolerance         0.1000000000E-03
DM.RequireEnergyConvergence              F     # Default value
DM.EnergyTolerance         0.7349806700E-05 Ry     # Default value
DM.RequireHarrisConvergence              F     # Default value
DM.HarrisTolerance         0.7349806700E-05 Ry     # Default value
UseSaveData              F     # Default value
DM.UseSaveDM              T
NeglNonOverlapInt              F     # Default value
SolutionMethod     diagon     # Default value
Diag.DivideAndConquer              F
Diag.Memory          1.000000000         # Default value
ElectronicTemperature         0.1900000000E-02 Ry     # Default value
FixSpin              F     # Default value
ON.MaxNumIter           1000     # Default value
ON.etol         0.1000000000E-07     # Default value
ON.eta          0.000000000     Ry     # Default value
ON.eta_alpha          0.000000000     Ry     # Default value
ON.eta_beta          0.000000000     Ry     # Default value
On.RcLWF          9.500000000     Bohr     # Default value
ON.UseSaveLWF              F     # Default value
ON.functional     kim     # Default value
ON.ChemicalPotentialUse              F     # Default value
ON.ChemicalPotential              F     # Default value
ON.ChemicalPotentialRc          9.500000000     Bohr     # Default value
ON.ChemicalPotentialTemperature         0.5000000000E-01 Ry     # Default value
ON.ChemicalPotentialOrder            100     # Default value
MD.VariableCell              F
MD.TypeOfRun     cg                                                                                                                                  
MD.UseSaveCG              F
Optim.Broyden              F     # Default value
MD.NumCGsteps                      200
MD.MaxCGDispl         0.3000000000           Bohr
# Above item originally: MD.MaxCGDispl         0.3000000000     Bohr      
MD.MaxForceTol         0.3889348769E-03    Ry/Bohr
# Above item originally: MD.MaxForceTol         0.1000000000E-01 eV/Ang    
MD.MaxStressTol         0.1089124997E-05 Ry/Bohr**3
# Above item originally: MD.MaxStressTol         0.1000000000E-03 eV/Ang**3 
MD.InitialTimeStep              1     # Default value
MD.FinalTimeStep              1     # Default value
MD.LengthTimeStep          1.000000000     fs     # Default value
MD.Quench              F     # Default value
MD.FireQuench              F     # Default value
MD.InitialTemperature          0.000000000     K     # Default value
MD.TargetTemperature          0.000000000     K     # Default value
MD.TargetPressure          0.000000000     Ry/Bohr**3     # Default value
MD.NoseMass          100.0000000     Ry*fs**2     # Default value
MD.ParrinelloRahmanMass          100.0000000     Ry*fs**2     # Default value
MD.AnnealOption     TemperatureAndPressure     # Default value
MD.TauRelax          100.0000000     fs     # Default value
MD.BulkModulus         0.6797730000E-02 Ry/Bohr**3     # Default value
MD.FCDispl         0.4000000000E-01 Bohr     # Default value
MD.FCfirst              1     # Default value
MD.FClast              6     # Default value
UseSpatialDecomposition              F     # Default value
UseDomainDecomposition              F     # Default value
Harris_functional              F     # Default value
WriteKpoints              F     # Default value
WriteForces              F     # Default value
WriteDM              T     # Default value
WriteDM.NetCDF              T     # Default value
WriteDM.History.NetCDF              F     # Default value
WriteDMHS.NetCDF              T     # Default value
WriteDMHS.History.NetCDF              F     # Default value
SCF.Read.Charge.NetCDF              F     # Default value
SCF.Read.Deformation.Charge.NetCDF              F     # Default value
SaveInitialChargeDensity              F     # Default value
UseNewDiagk              F     # Default value
WriteBands              F     # Default value
WriteKbands              F     # Default value
WriteEigenvalues              F     # Default value
WriteCoorStep              F     # Default value
WriteMDhistory              F     # Default value
WriteMDXmol              F     # Default value
UseSaveData              F     # Default value
SaveHS              F     # Default value
FixAuxiliaryCell              F     # Default value
NaiveAuxiliaryCell              F     # Default value
ReInitialiseDM              T     # Default value
DM.AllowReuse              T     # Default value
DM.AllowExtrapolation              T
MullikenInSCF              F     # Default value
WarningMinimumAtomicDistance          1.000000000     Bohr     # Default value
BornCharge              F     # Default value
ChangeKgridInMD              F     # Default value
Diag.ParallelOverK              F     # Default value
MD.RelaxCellOnly              F     # Default value
MD.RemoveIntraMolecularPressure              F     # Default value
COOP.Write              F     # Default value
SaveRho              F     # Default value
SaveDeltaRho              F     # Default value
SaveElectrostaticPotential              F     # Default value
SaveNeutralAtomPotential              F     # Default value
SaveTotalPotential              F     # Default value
SaveIonicCharge              F     # Default value
SaveBaderCharge              F     # Default value
SaveTotalCharge              F     # Default value
RcSpatial          0.000000000     Bohr     # Default value
ProcessorGridX              1     # Default value
ProcessorGridY              1     # Default value
ProcessorGridZ              1     # Default value
processorY              4     # Default value
blocksize              4     # Default value
NumberOfEigenStates             90     # Default value
TimeReversalSymmetryForKpoints              T     # Default value

%block kgrid_Monkhorst_Pack                                                    
   8  0  0  0.5                                                                
   0  8  0  0.5                                                                
   0  0  12  0.5                                                               
%endblock kgrid_Monkhorst_Pack                                                 
 
BandLines
LatticeConstant          1.889726878           Bohr
# Above item originally: LatticeConstant          1.000000000     Ang       
BandLinesScale     ReciprocalLatticeVectors                                                                                                            
LatticeConstant          1.889726878           Bohr
# Above item originally: LatticeConstant          1.000000000     Ang       

%block LatticeVectors                                                          
        4.594         0.0000000000         0.0000000000                        
        0.0000000000         4.594         0.0000000000                        
        0.0000000000         0.0000000000         2.964                        
%endblock LatticeVectors                                                       
 

%block LatticeVectors                                                          
        4.594         0.0000000000         0.0000000000                        
        0.0000000000         4.594         0.0000000000                        
        0.0000000000         0.0000000000         2.964                        
%endblock LatticeVectors                                                       
 

%block BandLines                                                               
 1  0.000  0.000  0.000 G                                                      
20  0.000  0.500  0.000 X                                                      
20  0.000  0.500  0.500 R                                                      
20  0.000  0.000  0.500 Z                                                      
20  0.000  0.000  0.000 G                                                      
20  0.500  0.500  0.000 M                                                      
20  0.500  0.500  0.500 A                                                      
20  0.000  0.000  0.500 Z                                                      
%endblock BandLines                                                            
 
BandLines
LatticeConstant          1.889726878           Bohr
# Above item originally: LatticeConstant          1.000000000     Ang       
BandLinesScale     ReciprocalLatticeVectors                                                                                                            
LatticeConstant          1.889726878           Bohr
# Above item originally: LatticeConstant          1.000000000     Ang       

%block LatticeVectors                                                          
        4.594         0.0000000000         0.0000000000                        
        0.0000000000         4.594         0.0000000000                        
        0.0000000000         0.0000000000         2.964                        
%endblock LatticeVectors                                                       
 

%block LatticeVectors                                                          
        4.594         0.0000000000         0.0000000000                        
        0.0000000000         4.594         0.0000000000                        
        0.0000000000         0.0000000000         2.964                        
%endblock LatticeVectors                                                       
 

%block BandLines                                                               
 1  0.000  0.000  0.000 G                                                      
20  0.000  0.500  0.000 X                                                      
20  0.000  0.500  0.500 R                                                      
20  0.000  0.000  0.500 Z                                                      
20  0.000  0.000  0.000 G                                                      
20  0.500  0.500  0.000 M                                                      
20  0.500  0.500  0.500 A                                                      
20  0.000  0.000  0.500 Z                                                      
%endblock BandLines                                                            
 
WFS.EnergyMin        -0.1797693135+309 Ry     # Default value
WFS.EnergyMax         0.1797693135+309 Ry     # Default value
LongOutput              F     # Default value
WriteWaveFunctions              F     # Default value
WriteWaveDebug              F     # Default value
ForceAuxCell              F     # Default value
AtomicCoordinatesFormat     Fractional                                                                                                                          
AtomCoorFormatOut     Fractional                 # Default value
LatticeConstant          1.889726878           Bohr
# Above item originally: LatticeConstant          1.000000000     Ang       
DM.FormattedFiles              F     # Default value
DM.FormattedInput              F     # Default value
DM.FormattedOutput              F     # Default value
Harris_functional              F     # Default value
MeshSubDivisions              2     # Default value
LatticeConstant          1.889726878           Bohr
# Above item originally: LatticeConstant          1.000000000     Ang       

%block LatticeVectors                                                          
        4.594         0.0000000000         0.0000000000                        
        0.0000000000         4.594         0.0000000000                        
        0.0000000000         0.0000000000         2.964                        
%endblock LatticeVectors                                                       
 

%block LatticeVectors                                                          
        4.594         0.0000000000         0.0000000000                        
        0.0000000000         4.594         0.0000000000                        
        0.0000000000         0.0000000000         2.964                        
%endblock LatticeVectors                                                       
 
DirectPhi              F     # Default value
SimulateDoping              F     # Default value
SlabDipoleCorrection              F     # Default value
Omega         0.1100000000         # Default value
On_the_fly              F     # Default value
HFX.SchwarzTolerance         0.1000000000E-05
HFX.StoreERIsTolerance         0.1000000000E-05
HFX.PairListTolerance         0.1000000000E-05
HFX.FarFieldTolerance         0.1000000000E-05
HFX.FarField              T
HFX.StoreERIs              F     # Default value
HFX.TruncateDM              T
HFX.Dynamic_parallel              F
HFX.FragSize                    10000
HFX.DumpFitData              T
HFX.FitDataPoints                      500
HFX.MaximumNumberGaussians-S              6     # Default value
HFX.MaximumNumberGaussians-P              5     # Default value
HFX.MaximumNumberGaussians-D              4     # Default value
HFX.SeparationExponents          1.400000000    
HFX.ToleranceFit         0.1000000000E-02
HFX.UseFittedNAOs              T
HFX.GaussianEPS         0.1000000000E-04
Diag.ParallelOverK              F     # Default value
LatticeConstant          1.889726878           Bohr
# Above item originally: LatticeConstant          1.000000000     Ang       

%block LatticeVectors                                                          
        4.594         0.0000000000         0.0000000000                        
        0.0000000000         4.594         0.0000000000                        
        0.0000000000         0.0000000000         2.964                        
%endblock LatticeVectors                                                       
 

%block LatticeVectors                                                          
        4.594         0.0000000000         0.0000000000                        
        0.0000000000         4.594         0.0000000000                        
        0.0000000000         0.0000000000         2.964                        
%endblock LatticeVectors                                                       
 
Diag.AllInOne              F     # Default value
Diag.DivideAndConquer              F
Diag.NoExpert              F     # Default value
Diag.PreRotate              F     # Default value
Diag.Use2D              T     # Default value
SingleExcitation              F     # Default value
OccupationFunction     FD     # Default value
OccupationFunction     FD     # Default value
Omega         0.1100000000         # Default value
On_the_fly              F     # Default value
HFX.SchwarzTolerance         0.1000000000E-05
HFX.StoreERIsTolerance         0.1000000000E-05
HFX.PairListTolerance         0.1000000000E-05
HFX.FarFieldTolerance         0.1000000000E-05
HFX.FarField              T
HFX.StoreERIs              F     # Default value
HFX.TruncateDM              T
HFX.Dynamic_parallel              F
HFX.FragSize                    10000
HFX.DumpFitData              T
HFX.FitDataPoints                      500
HFX.MaximumNumberGaussians-S              6     # Default value
HFX.MaximumNumberGaussians-P              5     # Default value
HFX.MaximumNumberGaussians-D              4     # Default value
HFX.SeparationExponents          1.400000000    
HFX.ToleranceFit         0.1000000000E-02
HFX.UseFittedNAOs              T
HFX.GaussianEPS         0.1000000000E-04

%block GeometryConstraints                                                     
   routine constr                                                              
%endblock GeometryConstraints                                                  
 
WriteCoorXmol              F     # Default value
WriteCoorCerius              F     # Default value
WFS.Write.For.Bands              F     # Default value
BasisPressure         0.2000000000     GPa     # Default value
OpticalCalculation              F     # Default value
