+ echo /public/home/xmqin/TiO2/TiO2/543_1stopt/band
/public/home/xmqin/TiO2/TiO2/543_1stopt/band
++ wc -l /var/spool/torque/aux//73952.admin
++ awk '{print $1}'
+ NCPUS=24
+ echo 24
24
+ cd /public/home/xmqin/TiO2/TiO2/543_1stopt/band
+ tee TiO2.out
+ mpirun -np 24 -machinefile /var/spool/torque/aux//73952.admin /public/home/xmqin/Paper/honpas_2.0-beta/Obj/honpas
Siesta Version:                                        siesta-3.2
Architecture  : x86_64-unknown-linux-gnu--unknown
Compiler flags: mpiifort -O2 -g  -assume byterecl -w -fPIC -fp-model source -heap-arrays
PARALLEL version

* Running on   24 nodes in parallel
>> Start of run:   5-JUL-2023   4:14:39

                           ***********************       
                           *  WELCOME TO SIESTA  *       
                           ***********************       

reinit: Reading from standard input
************************** Dump of input data file ****************************
SystemName	TiO2, rutile structure.
#               Optimization of the cubic lattice constant
#		MeshCutOff energy of 1200 Ry
#               6 x 6 x 6 Monkhorst-Pack mesh
SystemLabel	TiO2
NumberOfSpecies		2
%block ChemicalSpeciesLabel
      1      22     Ti
      2       8     O
%endblock ChemicalSpeciesLabel
%block PS.lmax
   Ti    3
    O    3
%endblock PS.lmax
%block PAO.Basis
Ti    5      2.0345829
 n=3    0    1   E     83.6767677       2.7383082
   3.6693821
   1.00000000000000
 n=4    0    2   E     101.4085969       4.8177690
   5.2616626            3.2826160
   1.00000000000000        1.00000000000000
 n=3    1    1   E     19.7689470       2.5835443
   3.9726775
   1.00000000000000
 n=4    1    1   E     98.6765931       2.1236661
   3.6530292
   1.00000000000000
 n=3    2    2   E     53.8948464       4.2974121
    5.0381797            3.1486843
   1.00000000000000        1.00000000000000
O     3     -.5074421
 n=2    0    2   E      40.5163425       3.7494516
   4.3573191            2.8372895
   1.00000000000000        1.00000000000000
 n=2    1    2   E      36.6791481       3.7987264
   5.1791638            3.7253647
   1.00000000000000        1.00000000000000
 n=3    2    1   E      20.9602331       1.3492424
   3.0497870
   1.00000000000000
%endblock PAO.Basis
%block NAO2GTO
Ti   7
3  0  1  5
    0.49203199E+00     0.79732003E+00
    0.14577260E+01     0.44359165E+01
    0.20408164E+01    -0.32221986E+01
    0.28571429E+01    -0.17884217E+01
    0.40000000E+01     0.13076243E+01
4  0  1  5
    0.19533627E+00    -0.24010055E+01
    0.27347078E+00     0.23184128E+01
    0.17425747E+01     0.43645876E+01
    0.24396045E+01    -0.46648239E+01
    0.34154462E+01     0.13194612E+01
4  0  2  5
    0.62950942E+00    -0.18755778E+02
    0.88131317E+00     0.52654236E+02
    0.12338384E+01    -0.65438688E+02
    0.17273738E+01     0.47594744E+02
    0.24183232E+01    -0.13479616E+02
3  1  1  3
0.552001354053265      0.730345175874573
4.32705508804188       -0.284123677310724
1.60555475567057       2.97516756165431
4  1  1  4
    0.57827367E+00    -0.51486511E+01
    0.80958313E+00     0.71017386E+01
    0.31548145E+01     0.28606254E+01
    0.44167402E+01    -0.14352164E+01
3  2  1  4
0.330866571074327      0.17864807160686
6.65509839634718       -1.03276730765004
3.2827256134639        6.82773157744008
1.09901679197456       1.41107399473128
3  2  2  4
0.689195064082229      0.829280129806296
1.87470008147885       2.46867016140883
5.21624665118724       -5.24885435464808
4.03424862850695       10.3718164116568
O   5
2  0  1  5
4.13969327531419       17.8517889785121
0.813524221624063      1.05544869844859
0.26356283523924       0.511716302225971
3.71709846118363       -36.6455997458304
3.31964661491497       18.4274040828819
2  0  2  5
1.12924238829874       75.8653711360624
1.40861991323814       72.7518795764575
3.89733938549867       34.8165245433104
1.24855706899024       -143.16182270615
3.7379375989639        -38.8950205037079
2  1  1  4
3.97724481404075       3.71587474310853
1.07184239957366       1.40154046038399
9.67716961909106       -0.475766355971558
0.245785749776917      0.289484324753684
2  1  2  4
0.456998833473644      0.663017266106266
1.54021978311553       1.89672498574229
5.66425136770417       52.8313039006616
5.81048718488705       -49.6736080862657
3  2  1  3
1.48619546790924       -17.9822526709869
1.58657873370156       17.5010607294238
0.78441276292696       2.4935628702104
%endblock NAO2GTO
%block kgrid_Monkhorst_Pack
   8  0  0  0.5
   0  8  0  0.5
   0  0  12  0.5
%endblock kgrid_Monkhorst_Pack
BandLinesScale ReciprocalLatticeVectors
%block BandLines
 1  0.000  0.000  0.000 G
20  0.000  0.500  0.000 X
20  0.000  0.500  0.500 R
20  0.000  0.000  0.500 Z
20  0.000  0.000  0.000 G
20  0.500  0.500  0.000 M
20  0.500  0.500  0.500 A
20  0.000  0.000  0.500 Z
%endblock BandLines
%include coord.fdf
MeshCutoff             250 Ry
XC.Functional          GGA
XC.Authors            HSE06
SpinPolarized          .false.
DM.NumberPulay         6
DM.MixingWeight        0.2000      # New DM amount for next SCF cycle
DM.Tolerance           1.d-4       # Tolerance in maximum difference
                                   # between input and output DM
MaxSCFIterations       200
Diag.DivideAndConquer  .false.
#
# Options for saving/reading information
#
DM.UseSaveDM            .true.        # Use DM Continuation files
MD.UseSaveXV            .false.      # Use stored positions and velocities
MD.UseSaveCG            .false.      # Use CG history information
WriteIonPlotFiles       .true.
#
# Molecular dynamics and relaxations
#
MD.TypeOfRun            cg          # Type of dynamics:
                                    #   - CG
DM.AllowExtrapolation   .true.
MD.VariableCell         .false.      # The lattice is relaxed together with
                                    # the atomic coordinates?
MD.NumCGsteps            200          # Number of CG steps for
                                    #   coordinate optimization
MD.MaxCGDispl           0.3 Bohr    # Maximum atomic displacement
                                    #   in one CG step
MD.MaxForceTol          0.01 eV/Ang # Tolerance in the maximum
                                    #   atomic force
MD.MaxStressTol         0.0001 eV/Ang**3
%block GeometryConstraints
   routine constr
%endblock GeometryConstraints
SCF.MixAfterConvergence F
#WriteIonPlotFiles        .true.
KB.New.Reference.Orbitals .true.
HFX.UseFittedNAOs                    T
HFX.TruncateDM                    T
HFX.DumpFitData                   T
HFX.FarField                      T
HFX.FitDataPoints               500
HFX.FarFieldTolerance     0.100E-05
HFX.PairListTolerance     0.100E-05
HFX.SchwarzTolerance      0.100E-05
HFX.StoreERIsTolerance    0.100E-05
HFX.Omega                 0.110E+00
HFX.MinimumNumberGaussians                  4
HFX.MaximumNumberGaussians                  5
HFX.SeparationExponents                 0.140E+01
HFX.ToleranceFit                 0.100E-02
HFX.GaussianEPS                 0.100E-04
HFX.Dynamic_parallel                    F
HFX.FragSize               10000
************************** End of input data file *****************************

reinit: -----------------------------------------------------------------------
reinit: System Name: TiO2, rutile structure.
reinit: -----------------------------------------------------------------------
reinit: System Label: TiO2                                                        
reinit: -----------------------------------------------------------------------

initatom: Reading input for the pseudopotentials and atomic orbitals ----------
 Species number:            1  Label: Ti Atomic number:          22
 Species number:            2  Label: O Atomic number:           8
Ground state valence configuration:   4s02  3d02
Reading pseudopotential information in formatted form from Ti.psf

Pseudopotential generated from a relativistic atomic calculation
There are spin-orbit pseudopotentials available
Spin-orbit interaction is not included in this calculation

Valence configuration for pseudopotential generation:
3s( 2.00) rc: 1.49
3p( 6.00) rc: 1.40
3d( 2.00) rc: 1.49
4f( 0.00) rc: 1.98
Dumping pseudopotential information in formatted form in Ti.psdump
Ground state valence configuration:   2s02  2p04
Reading pseudopotential information in formatted form from O.psf

Valence configuration for pseudopotential generation:
2s( 2.00) rc: 1.14
2p( 4.00) rc: 1.14
3d( 0.00) rc: 1.14
4f( 0.00) rc: 1.14
Dumping pseudopotential information in formatted form in O.psdump
Semicore shell(s) with  8 electrons included in the valence for
Ti
relmxkb: Read Max KB Ang. Momentum=    3 for species Ti
relmxkb: Read Max KB Ang. Momentum=    3 for species O

<basis_specs>
===============================================================================
Ti                   Z=  22    Mass=  47.880        Charge=  2.0346    
Lmxo=2 Lmxkb= 3    BasisType=split      Semic=T
L=0  Nsemic=1  Cnfigmx=4
          n=1  nzeta=1  polorb=0
            splnorm:   0.15000    
               vcte:    83.677    
               rinn:    2.7383    
                rcs:    3.6694    
            lambdas:    1.0000    
          n=2  nzeta=2  polorb=0
            splnorm:   0.15000    
               vcte:    101.41    
               rinn:    4.8178    
                rcs:    5.2617      3.2826    
            lambdas:    1.0000      1.0000    
L=1  Nsemic=1  Cnfigmx=4
          n=1  nzeta=1  polorb=0
            splnorm:   0.15000    
               vcte:    19.769    
               rinn:    2.5835    
                rcs:    3.9727    
            lambdas:    1.0000    
          n=2  nzeta=1  polorb=0
            splnorm:   0.15000    
               vcte:    98.677    
               rinn:    2.1237    
                rcs:    3.6530    
            lambdas:    1.0000    
L=2  Nsemic=0  Cnfigmx=3
          n=1  nzeta=2  polorb=0
            splnorm:   0.15000    
               vcte:    53.895    
               rinn:    4.2974    
                rcs:    5.0382      3.1487    
            lambdas:    1.0000      1.0000    
-------------------------------------------------------------------------------
L=0  Nkbl=2  erefs: 0.17977+309 0.17977+309
L=1  Nkbl=2  erefs: 0.17977+309 0.17977+309
L=2  Nkbl=1  erefs: 0.17977+309
L=3  Nkbl=1  erefs: 0.17977+309
===============================================================================
</basis_specs>

atom: Called for Ti                    (Z =  22)

read_vps: Pseudopotential generation method:
read_vps: ATM3      Troullier-Martins                       
Total valence charge:   10.00000

read_vps: Pseudopotential includes a core correction:
read_vps: Pseudo-core for xc-correction

atom: Pseudopotential generated from an ionic configuration
atom: with net charge 2.00

xc_check: Exchange-correlation functional:
xc_check: HSE06: JCP 125, 224106 (2006)
xc_check: WARNING: Pseudopotential generated with GGA Perdew, Burke & Ernzerhof 1996 functional
V l=0 = -2*Zval/r beyond r=  1.4680
V l=1 = -2*Zval/r beyond r=  1.3964
V l=2 = -2*Zval/r beyond r=  1.4680
V l=3 = -2*Zval/r beyond r=  1.9570
All V_l potentials equal beyond r=  1.9570
This should be close to max(r_c) in ps generation
All pots = -2*Zval/r beyond r=  1.9570

VLOCAL1: 99.0% of the norm of Vloc inside     11.334 Ry
VLOCAL1: 99.9% of the norm of Vloc inside     25.831 Ry
atom: Maximum radius for 4*pi*r*r*local-pseudopot. charge    2.39028
atom: Maximum radius for r*vlocal+2*Zval:    2.08320
KBgen: More than one KB projector for l=  0
KBgen: ghost states analysis will be not performed
KBgen: More than one KB projector for l=  1
KBgen: ghost states analysis will be not performed
GHOST: No ghost state for L =  2
GHOST: No ghost state for L =  3

KBgen: Kleinman-Bylander projectors: 
   l= 0   rc=  2.135936   el= -5.764768   Ekb= -5.125687   kbcos= -0.420000
   l= 0   rc=  2.245453   el= -1.291727   Ekb= 12.434876   kbcos=  0.057314
   l= 1   rc=  2.135936   el= -4.022936   Ekb= -4.112979   kbcos= -0.770781
   l= 1   rc=  2.302300   el= -0.914657   Ekb= -2.085632   kbcos= -0.074512
   l= 2   rc=  2.109401   el= -1.447420   Ekb=-13.073841   kbcos= -0.511055
   l= 3   rc=  2.390280   el= -0.285284   Ekb= -1.791533   kbcos= -0.025329

KBgen: Total number of  Kleinman-Bylander projectors:   20
atom: -------------------------------------------------------------------------

atom: SANKEY-TYPE ORBITALS:
atom: Selected multiple-zeta basis: split     

atom: basis set generated (by rescaling the valence charge)
atom: for a cation of charge   2.0346

SPLIT: Orbitals with angular momentum L= 0

SPLIT: Basis orbitals for state 3s

   izeta = 1
                 lambda =    1.000000
                     rc =    3.702200
                 energy =   -5.820753
                kinetic =    2.065229
    potential(screened) =   -7.885982
       potential(ionic) =  -22.772722

SPLIT: Basis orbitals for state 4s

   izeta = 1
                 lambda =    1.000000
                     rc =    5.253718
                 energy =   -1.269434
                kinetic =    1.398160
    potential(screened) =   -2.667593
       potential(ionic) =  -10.887205

   izeta = 2
                 rmatch =    3.267166
              splitnorm =    1.049890
                 energy =    0.069741
                kinetic =    5.019103
    potential(screened) =   -4.949362
       potential(ionic) =  -17.352313

SPLIT: Orbitals with angular momentum L= 1

SPLIT: Basis orbitals for state 3p

   izeta = 1
                 lambda =    1.000000
                     rc =    3.990551
                 energy =   -4.076292
                kinetic =    4.877986
    potential(screened) =   -8.954278
       potential(ionic) =  -23.350294

SPLIT: Basis orbitals for state 4p

   izeta = 1
                 lambda =    1.000000
                     rc =    3.702200
                 energy =    0.662948
                kinetic =    5.823607
    potential(screened) =   -5.160659
       potential(ionic) =  -16.063964

SPLIT: Orbitals with angular momentum L= 2

SPLIT: Basis orbitals for state 3d

   izeta = 1
                 lambda =    1.000000
                     rc =    5.124001
                 energy =   -1.490771
                kinetic =    7.451023
    potential(screened) =   -8.941794
       potential(ionic) =  -21.778292

   izeta = 2
                 rmatch =    3.186497
              splitnorm =    0.078037
                 energy =   -1.368634
                kinetic =    9.280615
    potential(screened) =  -10.649249
       potential(ionic) =  -24.606454
atom: Total number of Sankey-type orbitals: 19

atm_pop: Valence configuration (for local Pseudopot. screening):
 3s( 2.00) 4s( 2.00)                                                  
 3p( 6.00) 4p( 0.00)                                                  
 3d( 2.00)                                                            
Vna: chval, zval:   12.00000  12.00000

Vna:  Cut-off radius for the neutral-atom potential:   5.253718
comcore: Pseudo-core radius Rcore=  1.663443

atom: _________________________________________________________________________

<basis_specs>
===============================================================================
O                    Z=   8    Mass=  16.000        Charge=-0.50744    
Lmxo=2 Lmxkb= 3    BasisType=split      Semic=F
L=0  Nsemic=0  Cnfigmx=2
          n=1  nzeta=2  polorb=0
            splnorm:   0.15000    
               vcte:    40.516    
               rinn:    3.7495    
                rcs:    4.3573      2.8373    
            lambdas:    1.0000      1.0000    
L=1  Nsemic=0  Cnfigmx=2
          n=1  nzeta=2  polorb=0
            splnorm:   0.15000    
               vcte:    36.679    
               rinn:    3.7987    
                rcs:    5.1792      3.7254    
            lambdas:    1.0000      1.0000    
L=2  Nsemic=0  Cnfigmx=3
          n=1  nzeta=1  polorb=0
            splnorm:   0.15000    
               vcte:    20.960    
               rinn:    1.3492    
                rcs:    3.0498    
            lambdas:    1.0000    
-------------------------------------------------------------------------------
L=0  Nkbl=1  erefs: 0.17977+309
L=1  Nkbl=1  erefs: 0.17977+309
L=2  Nkbl=1  erefs: 0.17977+309
L=3  Nkbl=1  erefs: 0.17977+309
===============================================================================
</basis_specs>

atom: Called for O                     (Z =   8)

read_vps: Pseudopotential generation method:
read_vps: ATM 3.2.2 Troullier-Martins                       
Total valence charge:    6.00000

read_vps: Pseudopotential includes a core correction:
read_vps: Pseudo-core for xc-correction

xc_check: Exchange-correlation functional:
xc_check: HSE06: JCP 125, 224106 (2006)
xc_check: WARNING: Pseudopotential generated with GGA Perdew, Burke & Ernzerhof 1996 functional
V l=0 = -2*Zval/r beyond r=  1.1278
V l=1 = -2*Zval/r beyond r=  1.1278
V l=2 = -2*Zval/r beyond r=  1.1278
V l=3 = -2*Zval/r beyond r=  1.1278
All V_l potentials equal beyond r=  1.1278
This should be close to max(r_c) in ps generation
All pots = -2*Zval/r beyond r=  1.1278

VLOCAL1: 99.0% of the norm of Vloc inside     34.126 Ry
VLOCAL1: 99.9% of the norm of Vloc inside     77.774 Ry
atom: Maximum radius for 4*pi*r*r*local-pseudopot. charge    1.37759
atom: Maximum radius for r*vlocal+2*Zval:    1.18566
GHOST: No ghost state for L =  0
GHOST: No ghost state for L =  1
GHOST: No ghost state for L =  2
GHOST: No ghost state for L =  3

KBgen: Kleinman-Bylander projectors: 
   l= 0   rc=  1.262145   el= -1.757696   Ekb=  9.224596   kbcos=  0.328556
   l= 1   rc=  1.262145   el= -0.664256   Ekb= -7.912306   kbcos= -0.392969
   l= 2   rc=  1.343567   el=  0.002031   Ekb= -1.926788   kbcos= -0.003514
   l= 3   rc=  1.394919   el=  0.003153   Ekb= -0.739398   kbcos= -0.000358

KBgen: Total number of  Kleinman-Bylander projectors:   16
atom: -------------------------------------------------------------------------

atom: SANKEY-TYPE ORBITALS:
atom: Selected multiple-zeta basis: split     

atom: basis set generated (by rescaling the valence charge)
atom: for an anion of charge  -0.5074

SPLIT: Orbitals with angular momentum L= 0

SPLIT: Basis orbitals for state 2s

   izeta = 1
                 lambda =    1.000000
                     rc =    4.351355
                 energy =   -1.747055
                kinetic =    1.412089
    potential(screened) =   -3.159144
       potential(ionic) =  -10.872301

   izeta = 2
                 rmatch =    2.844677
              splitnorm =    0.125259
                 energy =   -1.628262
                kinetic =    2.125264
    potential(screened) =   -3.753525
       potential(ionic) =  -12.078960

SPLIT: Orbitals with angular momentum L= 1

SPLIT: Basis orbitals for state 2p

   izeta = 1
                 lambda =    1.000000
                     rc =    5.183594
                 energy =   -0.638353
                kinetic =    4.001595
    potential(screened) =   -4.639948
       potential(ionic) =  -11.863559

   izeta = 2
                 rmatch =    3.745203
              splitnorm =    0.073489
                 energy =   -0.625565
                kinetic =    5.194651
    potential(screened) =   -5.820216
       potential(ionic) =  -13.726130

SPLIT: Orbitals with angular momentum L= 2

SPLIT: Basis orbitals for state 3d

   izeta = 1
                 lambda =    1.000000
                     rc =    3.066256
                 energy =    2.883971
                kinetic =    4.828539
    potential(screened) =   -1.944568
       potential(ionic) =   -8.438976
atom: Total number of Sankey-type orbitals: 13

atm_pop: Valence configuration (for local Pseudopot. screening):
 2s( 2.00)                                                            
 2p( 4.00)                                                            
 3d( 0.00)                                                            
Vna: chval, zval:    6.00000   6.00000

Vna:  Cut-off radius for the neutral-atom potential:   5.183594
comcore: Pseudo-core radius Rcore=  1.377587

atom: _________________________________________________________________________

prinput: Basis input ----------------------------------------------------------

PAO.BasisType split     

%block ChemicalSpeciesLabel
    1   22 Ti                      # Species index, atomic number, species label
    2    8 O                       # Species index, atomic number, species label
%endblock ChemicalSpeciesLabel

%block PAO.Basis                 # Define Basis set
Ti                    5   2.035            # Label, l-shells, ionic net charge
 n=3   0   1                         # n, l, Nzeta 
   3.702   
   1.000   
 n=4   0   2                         # n, l, Nzeta 
   5.254      3.267   
   1.000      1.000   
 n=3   1   1                         # n, l, Nzeta 
   3.991   
   1.000   
 n=4   1   1                         # n, l, Nzeta 
   3.702   
   1.000   
 n=3   2   2                         # n, l, Nzeta 
   5.124      3.186   
   1.000      1.000   
O                     3  -0.507            # Label, l-shells, ionic net charge
 n=2   0   2                         # n, l, Nzeta 
   4.351      2.845   
   1.000      1.000   
 n=2   1   2                         # n, l, Nzeta 
   5.184      3.745   
   1.000      1.000   
 n=3   2   1                         # n, l, Nzeta 
   3.066   
   1.000   
%endblock PAO.Basis

prinput: ----------------------------------------------------------------------

 Read NAO2GTO from input fdf file
nao2gto_transfer: isp, inlz, ipgf, pgf_radius =     1    1    1     4.83722
nao2gto_transfer: isp, inlz, ipgf, pgf_radius =     1    1    2     2.81031
nao2gto_transfer: isp, inlz, ipgf, pgf_radius =     1    1    3     2.37515
nao2gto_transfer: isp, inlz, ipgf, pgf_radius =     1    1    4     2.00737
nao2gto_transfer: isp, inlz, ipgf, pgf_radius =     1    1    5     1.69654
nao2gto_transfer: is, inlz, fittedcut, origincut =     1    1     4.83722     3.70220
nao2gto_transfer: isp, inlz, ipgf, pgf_radius =     1    2    1     7.67717
nao2gto_transfer: isp, inlz, ipgf, pgf_radius =     1    2    2     6.48840
nao2gto_transfer: isp, inlz, ipgf, pgf_radius =     1    2    3     2.57038
nao2gto_transfer: isp, inlz, ipgf, pgf_radius =     1    2    4     2.17237
nao2gto_transfer: isp, inlz, ipgf, pgf_radius =     1    2    5     1.83598
nao2gto_transfer: is, inlz, fittedcut, origincut =     1    2     7.67717     5.25372
nao2gto_transfer: isp, inlz, ipgf, pgf_radius =     1    3    1     4.27653
nao2gto_transfer: isp, inlz, ipgf, pgf_radius =     1    3    2     3.61433
nao2gto_transfer: isp, inlz, ipgf, pgf_radius =     1    3    3     3.05467
nao2gto_transfer: isp, inlz, ipgf, pgf_radius =     1    3    4     2.58166
nao2gto_transfer: isp, inlz, ipgf, pgf_radius =     1    3    5     2.18190
nao2gto_transfer: is, inlz, fittedcut, origincut =     1    3     4.27653     3.26717
nao2gto_transfer: isp, inlz, ipgf, pgf_radius =     1    4    1     4.87082
nao2gto_transfer: isp, inlz, ipgf, pgf_radius =     1    4    2     1.66697
nao2gto_transfer: isp, inlz, ipgf, pgf_radius =     1    4    3     2.79478
nao2gto_transfer: is, inlz, fittedcut, origincut =     1    4     4.87082     3.99055
nao2gto_transfer: isp, inlz, ipgf, pgf_radius =     1    5    1     4.75450
nao2gto_transfer: isp, inlz, ipgf, pgf_radius =     1    5    2     3.99130
nao2gto_transfer: isp, inlz, ipgf, pgf_radius =     1    5    3     1.96559
nao2gto_transfer: isp, inlz, ipgf, pgf_radius =     1    5    4     1.64922
nao2gto_transfer: is, inlz, fittedcut, origincut =     1    5     4.75450     3.70220
nao2gto_transfer: isp, inlz, ipgf, pgf_radius =     1    6    1     6.81128
nao2gto_transfer: isp, inlz, ipgf, pgf_radius =     1    6    2     1.34904
nao2gto_transfer: isp, inlz, ipgf, pgf_radius =     1    6    3     1.98079
nao2gto_transfer: isp, inlz, ipgf, pgf_radius =     1    6    4     3.57702
nao2gto_transfer: is, inlz, fittedcut, origincut =     1    6     6.81128     5.12400
nao2gto_transfer: isp, inlz, ipgf, pgf_radius =     1    7    1     4.59690
nao2gto_transfer: isp, inlz, ipgf, pgf_radius =     1    7    2     2.68212
nao2gto_transfer: isp, inlz, ipgf, pgf_radius =     1    7    3     1.54038
nao2gto_transfer: isp, inlz, ipgf, pgf_radius =     1    7    4     1.77122
nao2gto_transfer: is, inlz, fittedcut, origincut =     1    7     4.59690     3.18650
nao2gto_transfer: isp, inlz, ipgf, pgf_radius =     2    1    1     1.66766
nao2gto_transfer: isp, inlz, ipgf, pgf_radius =     2    1    2     3.76190
nao2gto_transfer: isp, inlz, ipgf, pgf_radius =     2    1    3     6.60923
nao2gto_transfer: isp, inlz, ipgf, pgf_radius =     2    1    4     1.75991
nao2gto_transfer: isp, inlz, ipgf, pgf_radius =     2    1    5     1.86229
nao2gto_transfer: is, inlz, fittedcut, origincut =     2    1     6.60923     4.35135
nao2gto_transfer: isp, inlz, ipgf, pgf_radius =     2    2    1     3.19300
nao2gto_transfer: isp, inlz, ipgf, pgf_radius =     2    2    2     2.85888
nao2gto_transfer: isp, inlz, ipgf, pgf_radius =     2    2    3     1.71873
nao2gto_transfer: isp, inlz, ipgf, pgf_radius =     2    2    4     3.03661
nao2gto_transfer: isp, inlz, ipgf, pgf_radius =     2    2    5     1.75500
nao2gto_transfer: is, inlz, fittedcut, origincut =     2    2     3.19300     2.84468
nao2gto_transfer: isp, inlz, ipgf, pgf_radius =     2    3    1     1.74191
nao2gto_transfer: isp, inlz, ipgf, pgf_radius =     2    3    2     3.44911
nao2gto_transfer: isp, inlz, ipgf, pgf_radius =     2    3    3     1.09503
nao2gto_transfer: isp, inlz, ipgf, pgf_radius =     2    3    4     7.41574
nao2gto_transfer: is, inlz, fittedcut, origincut =     2    3     7.41574     5.18359
nao2gto_transfer: isp, inlz, ipgf, pgf_radius =     2    4    1     5.37324
nao2gto_transfer: isp, inlz, ipgf, pgf_radius =     2    4    2     2.85590
nao2gto_transfer: isp, inlz, ipgf, pgf_radius =     2    4    3     1.44844
nao2gto_transfer: isp, inlz, ipgf, pgf_radius =     2    4    4     1.42929
nao2gto_transfer: is, inlz, fittedcut, origincut =     2    4     5.37324     3.74520
nao2gto_transfer: isp, inlz, ipgf, pgf_radius =     2    5    1     3.04022
nao2gto_transfer: isp, inlz, ipgf, pgf_radius =     2    5    2     2.93491
nao2gto_transfer: isp, inlz, ipgf, pgf_radius =     2    5    3     4.28826
nao2gto_transfer: is, inlz, fittedcut, origincut =     2    5     4.28826     3.06626
%block NAO2GTO
Ti   7
3  0  1  5
       0.492031990     0.797320030
       1.457726000     4.435916500
       2.040816400    -3.222198600
       2.857142900    -1.788421700
       4.000000000     1.307624300
4  0  1  5
       0.195336270    -2.401005500
       0.273470780     2.318412800
       1.742574700     4.364587600
       2.439604500    -4.664823900
       3.415446200     1.319461200
4  0  2  5
       0.629509420   -18.755778000
       0.881313170    52.654236000
       1.233838400   -65.438688000
       1.727373800    47.594744000
       2.418323200   -13.479616000
3  1  1  3
       0.552001354     0.730345176
       4.327055088    -0.284123677
       1.605554756     2.975167562
4  1  1  4
       0.578273670    -5.148651100
       0.809583130     7.101738600
       3.154814500     2.860625400
       4.416740200    -1.435216400
3  2  1  4
       0.330866571     0.178648072
       6.655098396    -1.032767308
       3.282725613     6.827731577
       1.099016792     1.411073995
3  2  2  4
       0.689195064     0.829280130
       1.874700081     2.468670161
       5.216246651    -5.248854355
       4.034248629    10.371816412
O   5
2  0  1  5
       4.139693275    17.851788979
       0.813524222     1.055448698
       0.263562835     0.511716302
       3.717098461   -36.645599746
       3.319646615    18.427404083
2  0  2  5
       1.129242388    75.865371136
       1.408619913    72.751879576
       3.897339385    34.816524543
       1.248557069  -143.161822706
       3.737937599   -38.895020504
2  1  1  4
       3.977244814     3.715874743
       1.071842400     1.401540460
       9.677169619    -0.475766356
       0.245785750     0.289484325
2  1  2  4
       0.456998833     0.663017266
       1.540219783     1.896724986
       5.664251368    52.831303901
       5.810487185   -49.673608086
3  2  1  3
       1.486195468   -17.982252671
       1.586578734    17.501060729
       0.784412763     2.493562870
%endblock NAO2GTO
 Use fitted NAOs as new basis
coor:   Atomic-coordinates input format  =     Fractional

siesta: Atomic coordinates (Bohr) and species
siesta:      0.00000   0.00000   0.00000  1        1
siesta:      4.34070   4.34070   2.80058  1        2
siesta:      2.64783   2.64783   0.00000  2        3
siesta:      6.03358   6.03358   0.00000  2        4
siesta:      1.69287   6.98853   2.80058  2        5
siesta:      6.98853   1.69287   2.80058  2        6

siesta: System type = bulk      

initatomlists: Number of atoms, orbitals, and projectors:      6    90   104

siesta: ******************** Simulation parameters ****************************
siesta:
siesta: The following are some of the parameters of the simulation.
siesta: A complete list of the parameters used, including default values,
siesta: can be found in file out.fdf
siesta:
redata: Non-Collinear-spin run           =     F
redata: SpinPolarized (Up/Down) run      =     F
redata: Number of spin components        =     1
redata: Long output                      =     F
redata: Number of Atomic Species         =        2
redata: Charge density info will appear in .RHO file
redata: Write Mulliken Pop.              =     NO
redata: Mesh Cutoff                      =   250.0000  Ry
redata: Net charge of the system         =     0.0000 |e|
redata: Max. number of SCF Iter          =      200
redata: Performing Pulay mixing using    =     6 iterations
redata: Mix DM in first SCF step ?       =     F
redata: Write Pulay info on disk?        =     F
redata: Discard 1st Pulay DM after  kick =     F
redata: New DM Mixing Weight             =     0.2000
redata: New DM Occupancy tolerance       = 0.000000000001
redata: No kicks to SCF
redata: DM Mixing Weight for Kicks       =     0.5000
redata: DM Tolerance for SCF             =     0.000100
redata: Require Energy convergence for SCF =     F
redata: DM Energy tolerance for SCF      =     0.000100 eV
redata: Require Harris convergence for SCF =     F
redata: DM Harris energy tolerance for SCF =     0.000100 eV
redata: Using Saved Data (generic)   =     F
redata: Use continuation files for DM    =     T
redata: Neglect nonoverlap interactions  =     F
redata: Method of Calculation            =     Diagonalization
redata: Divide and Conquer               =     F
redata: Electronic Temperature           =     0.0019  Ry
redata: Fix the spin of the system       =     F
redata: Dynamics option                  =     CG coord. optimization
redata: Variable cell                    =     F
redata: Use continuation files for CG    =     F
redata: Max atomic displ per move        =     0.3000  Bohr
redata: Maximum number of CG moves       =      200
redata: Force tolerance                  =     0.0004  Ry/Bohr
redata: ***********************************************************************
Total number of electrons:    48.000000
Total ionic charge:    48.000000

* ProcessorY, Blocksize:    4   4

 Kpoints in:          384 . Kpoints trimmed:          384

siesta: k-grid: Number of k-points =   384
siesta: k-grid: Cutoff (effective) =    17.784 Ang
siesta: k-grid: Supercell and displacements
siesta: k-grid:    8   0   0      0.500
siesta: k-grid:    0   8   0      0.500
siesta: k-grid:    0   0  12      0.500
Naive supercell factors:     5    5    8

superc: Internal auxiliary supercell:     5 x     5 x     8  =     200
superc: Number of atoms, orbitals, and projectors:   1200  18000  20800

* Maximum dynamic memory allocated =     2 MB

siesta:                 ==============================
                            Begin CG move =      0
                        ==============================

superc: Internal auxiliary supercell:     5 x     5 x     8  =     200
superc: Number of atoms, orbitals, and projectors:   1200  18000  20800

outcell: Unit cell vectors (Ang):
        4.594000    0.000000    0.000000
        0.000000    4.594000    0.000000
        0.000000    0.000000    2.964000

outcell: Cell vector modules (Ang)   :    4.594000    4.594000    2.964000
outcell: Cell angles (23,13,12) (deg):     90.0000     90.0000     90.0000
outcell: Cell volume (Ang**3)        :     62.5547
New_DM. Step:     1
Initializing Density Matrix...

InitMesh: MESH =    48 x    48 x    30 =       69120
InitMesh: Mesh cutoff (required, used) =   250.000   283.131 Ry

 Input, default information for hybrid DFT calculations

 Hybrid DFT :: HSE06
 Omega =    0.110
Schwarz tolerance = .1D-05
pairlist tolerance = .1D-05
Stored tolerance = .1D-05
Farfield tolerance =.1D-05
On_the_fly =   F
use_DM_trunc =   T
Farfield =   T
Dynamic parallel =   F
Dynamic tasksize =    10000
HFX.UseFittedNAOs                    T
HFX.FitDataPoints               500
HFX.MinimumNumberGaussians                  4
HFX.MaximumNumberGaussians                  5
HFX.SeparationExponents                 0.140E+01
HFX.ToleranceFit                 0.100E-02
HFX.GaussianEPS                 0.100E-04
 max_eri_prescreen   1.25496420470835     
 max0 =    1.10625940445531     
list_ij:          4400
list_kl:        880000
max_eri 1.254964205
  1.000000000000000E-006  -6.00000000000000     
 HFX time :    27.5068680000000       s 
  Allreduce time ::    55.8265140000000       s 
  All HFX time ::    58.7732140000000       s 
 HFX energy:        -152.189687  eV

* Maximum dynamic memory allocated =  1332 MB

stepf: Fermi-Dirac step function

siesta: Program's energy decomposition (eV):
siesta: Ebs     =     -1263.020747
siesta: Eions   =      6685.495907
siesta: Ena     =       908.893549
siesta: Ekin    =      2418.493059
siesta: Enl     =      -763.125360
siesta: DEna    =        -0.000001
siesta: DUscf   =         0.000000
siesta: DUext   =         0.000000
siesta: Exc     =      -964.130532
siesta: eta*DQ  =         0.000000
siesta: Emadel  =         0.000000
siesta: Emeta   =         0.000000
siesta: Emolmec =         0.000000
siesta: Ekinion =         0.000000
siesta: Eharris =     -5160.656396
siesta: Etot    =     -5085.365193
siesta: FreeEng =     -5085.365193

siesta: iscf   Eharris(eV)      E_KS(eV)   FreeEng(eV)   dDmax  Ef(eV)
siesta:    1    -5160.6564    -5085.3652    -5085.3652  1.9527 -8.9273
timer: Routine,Calls,Time,% = IterSCF        1    1876.721  98.01
elaps: Routine,Calls,Wall,% = IterSCF        1      78.273  97.96
 HFX time :    152.209338000000       s 
  Allreduce time ::    170.677362000000       s 
  All HFX time ::    173.668920000000       s 
 HFX energy:        -172.301979  eV
siesta:    2    -5387.9312    -5033.6510    -5033.6510  2.7243 -4.3664
 HFX time :    130.486764000000       s 
  Allreduce time ::    147.357379000000       s 
  All HFX time ::    150.437519000000       s 
 HFX energy:        -154.612176  eV
siesta:    3    -5113.0117    -5080.1850    -5080.1874  1.0402 -1.2944
 HFX time :    131.075975000000       s 
  Allreduce time ::    148.128031000000       s 
  All HFX time ::    151.338989000000       s 
 HFX energy:        -155.391579  eV
siesta:    4    -5107.1799    -5083.3133    -5083.3133  0.8676 -2.4753
 HFX time :    131.374300000000       s 
  Allreduce time ::    148.503382000000       s 
  All HFX time ::    151.819568000000       s 
 HFX energy:        -155.839696  eV
siesta:    5    -5104.1481    -5093.0313    -5093.0313  0.7397 -4.4981
 HFX time :    160.553969000000       s 
  Allreduce time ::    179.163448000000       s 
  All HFX time ::    182.578521000000       s 
 HFX energy:        -159.574486  eV
siesta:    6    -5110.9090    -5116.0361    -5116.0361  0.3328 -6.6830
 HFX time :    157.391333000000       s 
  Allreduce time ::    175.828326000000       s 
  All HFX time ::    179.328843000000       s 
 HFX energy:        -158.407824  eV
siesta:    7    -5104.6691    -5110.2857    -5110.2869  0.1787 -5.4042
 HFX time :    158.620311000000       s 
  Allreduce time ::    177.176218000000       s 
  All HFX time ::    180.806307000000       s 
 HFX energy:        -158.767871  eV
siesta:    8    -5104.3869    -5103.5776    -5103.5776  0.0263 -5.2154
 HFX time :    159.040043000000       s 
  Allreduce time ::    177.521654000000       s 
  All HFX time ::    181.349989000000       s 
 HFX energy:        -158.704319  eV
siesta:    9    -5104.4050    -5103.1235    -5103.1235  0.0250 -5.1513
 HFX time :    161.202578000000       s 
  Allreduce time ::    181.030371000000       s 
  All HFX time ::    185.304189000000       s 
 HFX energy:        -158.766479  eV
siesta:   10    -5104.2853    -5103.5613    -5103.5613  0.0119 -5.4943
 HFX time :    161.561057000000       s 
  Allreduce time ::    181.498843000000       s 
  All HFX time ::    185.840614000000       s 
 HFX energy:        -158.786402  eV
siesta:   11    -5104.2784    -5103.6437    -5103.6437  0.0096 -5.5689
 HFX time :    158.220882000000       s 
  Allreduce time ::    212.022986000000       s 
  All HFX time ::    215.715105000000       s 
 HFX energy:        -158.831399  eV
siesta:   12    -5104.2700    -5103.8657    -5103.8657  0.0046 -5.6706
 HFX time :    160.888383000000       s 
  Allreduce time ::    197.321792000000       s 
  All HFX time ::    200.860023000000       s 
 HFX energy:        -158.876643  eV
siesta:   13    -5104.2694    -5104.0512    -5104.0512  0.0016 -5.7293
 HFX time :    161.921047000000       s 
  Allreduce time ::    185.676987000000       s 
  All HFX time ::    189.235295000000       s 
 HFX energy:        -158.923122  eV
siesta:   14    -5104.2697    -5104.2041    -5104.2041  0.0013 -5.7662
 HFX time :    162.120860000000       s 
  Allreduce time ::    184.756524000000       s 
  All HFX time ::    188.923242000000       s 
 HFX energy:        -158.930424  eV
siesta:   15    -5104.2696    -5104.2370    -5104.2370  0.0010 -5.7607
 HFX time :    161.864104000000       s 
  Allreduce time ::    181.795832000000       s 
  All HFX time ::    186.240220000000       s 
 HFX energy:        -158.930950  eV
siesta:   16    -5104.2697    -5104.2550    -5104.2550  0.0005 -5.8046
 HFX time :    162.380744000000       s 
  Allreduce time ::    179.587144000000       s 
  All HFX time ::    183.560705000000       s 
 HFX energy:        -158.931192  eV
siesta:   17    -5104.2698    -5104.2682    -5104.2682  0.0001 -5.7944
 HFX time :    162.143512000000       s 
  Allreduce time ::    182.321715000000       s 
  All HFX time ::    186.731350000000       s 
 HFX energy:        -158.931345  eV
siesta:   18    -5104.2697    -5104.2692    -5104.2692  0.0001 -5.7941
 HFX time :    162.585401000000       s 
  Allreduce time ::    182.191861000000       s 
  All HFX time ::    186.244995000000       s 
 HFX energy:        -158.931532  eV
 To calculate HFX gradient
list_ij:          4400
list_kl:        880000
 HFX Force time :    129.496548000000       s 
  All Force time ::    133.777834000000       s

siesta: E_KS(eV) =            -5104.2694

siesta: E_KS - E_eggbox =     -5104.2694

siesta: Atomic forces (eV/Ang):
----------------------------------------
   Tot   -0.000075   -0.000018    0.000199
----------------------------------------
   Max    0.004684
   Res    0.003032    sqrt( Sum f_i^2 / 3N )
----------------------------------------
   Max    0.004684    constrained

Stress-tensor-Voigt (kbar):     -350.45     -350.44     -482.46       -0.00        0.00        0.00
(Free)E + p*V (eV/cell)    -5088.8688
Target enthalpy (eV/cell)    -5104.2694

cgvc: Finished line minimization    1.  Mean atomic displacement =    0.0000

* Maximum dynamic memory allocated =  1974 MB

outcoor: Relaxed atomic coordinates (fractional):           
    0.00000000    0.00000000    0.00000000   1       1  Ti
    0.50000000    0.50000000    0.50000000   1       2  Ti
    0.30500000    0.30500000    0.00000000   2       3  O
    0.69500000    0.69500000    0.00000000   2       4  O
    0.19500000    0.80500000    0.50000000   2       5  O
    0.80500000    0.19500000    0.50000000   2       6  O
Computing bands...

siesta: Program's energy decomposition (eV):
siesta: Ebs     =     -1232.255113
siesta: Eions   =      6685.495907
siesta: Ena     =       908.893549
siesta: Ekin    =      2515.376668
siesta: Enl     =      -765.283100
siesta: DEna    =      -121.042667
siesta: DUscf   =        27.530718
siesta: DUext   =         0.000000
siesta: Exc     =      -984.248692
siesta: eta*DQ  =         0.000000
siesta: Emadel  =         0.000000
siesta: Emeta   =         0.000000
siesta: Emolmec =         0.000000
siesta: Ekinion =         0.000000
siesta: Eharris =     -5104.269725
siesta: Etot    =     -5104.269431
siesta: FreeEng =     -5104.269431

siesta: Final energy (eV):
siesta:  Band Struct. =   -1232.255113
siesta:       Kinetic =    2515.376668
siesta:       Hartree =    1166.436259
siesta:    Ext. field =       0.000000
siesta:   Exch.-corr. =    -984.248692
siesta:  Ion-electron =   -4946.142104
siesta:       Ion-ion =   -2855.691562
siesta:       Ekinion =       0.000000
siesta:         Total =   -5104.269431

siesta: Stress tensor (static) (eV/Ang**3):
siesta:    -0.218728   -0.000001    0.000000
siesta:    -0.000001   -0.218728    0.000000
siesta:     0.000000    0.000000   -0.301125

siesta: Cell volume =         62.554734 Ang**3

siesta: Pressure (static):
siesta:                Solid            Molecule  Units
siesta:           0.00268137          0.00268079  Ry/Bohr**3
siesta:           0.24619382          0.24614135  eV/Ang**3
siesta:         394.45025073        394.36617588  kBar
(Free)E+ p_basis*V_orbitals  =       -5099.300933
(Free)Eharris+ p_basis*V_orbitals  =       -5099.301501

* Maximum dynamic memory allocated : Node    0 =  1974 MB
* Maximum dynamic memory allocated : Node    1 =  1974 MB
* Maximum dynamic memory allocated : Node    2 =  1974 MB
* Maximum dynamic memory allocated : Node    3 =  1973 MB
* Maximum dynamic memory allocated : Node    4 =  1973 MB
* Maximum dynamic memory allocated : Node    5 =  1973 MB
* Maximum dynamic memory allocated : Node    6 =  1974 MB
* Maximum dynamic memory allocated : Node    7 =  1974 MB
* Maximum dynamic memory allocated : Node    8 =  1974 MB
* Maximum dynamic memory allocated : Node    9 =  1973 MB
* Maximum dynamic memory allocated : Node   10 =  1973 MB
* Maximum dynamic memory allocated : Node   11 =  1972 MB
* Maximum dynamic memory allocated : Node   12 =  1974 MB
* Maximum dynamic memory allocated : Node   13 =  1974 MB
* Maximum dynamic memory allocated : Node   14 =  1974 MB
* Maximum dynamic memory allocated : Node   15 =  1972 MB
* Maximum dynamic memory allocated : Node   16 =  1973 MB
* Maximum dynamic memory allocated : Node   17 =  1973 MB
* Maximum dynamic memory allocated : Node   18 =  1973 MB
* Maximum dynamic memory allocated : Node   19 =  1974 MB
* Maximum dynamic memory allocated : Node   20 =  1974 MB
* Maximum dynamic memory allocated : Node   21 =  1972 MB
* Maximum dynamic memory allocated : Node   22 =  1972 MB
* Maximum dynamic memory allocated : Node   23 =  1969 MB

* Maximum memory occured during update_hfx                    

timer: CPU execution times:
timer:  Routine       Calls   Time/call    Tot.time        %
timer:  siesta            1   88546.680   88546.680   100.00
timer:  Setup             1      31.731      31.731     0.04
timer:  bands             3      15.755      47.266     0.05
timer:  writewave         1       0.136       0.136     0.00
timer:  KSV_init          1       0.023       0.023     0.00
timer:  IterMD            1   88460.239   88460.239    99.90
timer:  hsparse           1       0.238       0.238     0.00
timer:  overlap           1       3.153       3.153     0.00
timer:  IterSCF          18    4457.581   80236.456    90.61
timer:  kinefsm           2       1.392       2.783     0.00
timer:  nlefsm            2      49.318      98.636     0.11
timer:  DHSCF            19    4402.914   83655.365    94.48
timer:  DHSCF1            1       2.962       2.962     0.00
timer:  DHSCF2            1     119.262     119.262     0.13
timer:  REORD           116       0.000       0.031     0.00
timer:  POISON           20       0.017       0.338     0.00
timer:  DHSCF3           19      19.954     379.135     0.43
timer:  rhoofd           19       6.541     124.285     0.14
timer:  cellXC           19       0.388       7.369     0.01
timer:  vmat             19      11.328     215.240     0.24
timer:  DHFX             19    4215.230   80089.376    90.45
timer:  HFX              19    3693.486   70176.236    79.25
timer:  MolMec            2       0.001       0.002     0.00
timer:  diagon           18     226.353    4074.354     4.60
timer:  c-eigval       7053       0.280    1975.684     2.23
timer:  c-buildHS      7053       0.006      44.175     0.05
timer:  cdiag         13965       0.280    3916.321     4.42
timer:  cdiag1        13965       0.026     360.217     0.41
timer:  cdiag2        13965       0.091    1273.601     1.44
timer:  cdiag3        13965       0.151    2107.665     2.38
timer:  cdiag4        13965       0.003      45.991     0.05
timer:  c-eigvec       6912       0.294    2031.717     2.29
timer:  c-buildD       6912       0.016     109.282     0.12
timer:  DHSCF4            1      75.896      75.896     0.09
timer:  dfscf             1      67.545      67.545     0.08
timer:  DFHFX             1    2988.399    2988.399     3.37
timer:  HFX_gradie        1       0.000       0.000     0.00
timer:  HFX_gradie        0    Infinity   87928.003    99.30
timer:  overfsm           1       0.120       0.120     0.00
timer:  optical           1       1.363       1.363     0.00
  

elaps: ELAPSED times:
elaps:  Routine       Calls   Time/call    Tot.time        %
elaps:  siesta            1    3817.967    3817.967   100.00
elaps:  Setup             1       1.365       1.365     0.04
elaps:  bands             3       0.761       2.282     0.06
elaps:  writewave         1       0.006       0.006     0.00
elaps:  KSV_init          1       0.001       0.001     0.00
elaps:  IterMD            1    3813.880    3813.880    99.89
elaps:  hsparse           1       0.010       0.010     0.00
elaps:  overlap           1       0.079       0.079     0.00
elaps:  IterSCF          18     191.430    3445.733    90.25
elaps:  kinefsm           2       0.034       0.068     0.00
elaps:  nlefsm            2       2.644       5.288     0.14
elaps:  DHSCF            19     190.408    3617.745    94.76
elaps:  DHSCF1            1       0.126       0.126     0.00
elaps:  DHSCF2            1       4.969       4.969     0.13
elaps:  REORD           116       0.000       0.001     0.00
elaps:  POISON           20       0.001       0.015     0.00
elaps:  DHSCF3           19       0.832      15.816     0.41
elaps:  rhoofd           19       0.316       6.006     0.16
elaps:  cellXC           19       0.017       0.317     0.01
elaps:  vmat             19       0.472       8.974     0.24
elaps:  DHFX             19     181.156    3441.960    90.15
elaps:  HFX              19     149.050    2831.951    74.17
elaps:  MolMec            2       0.000       0.000     0.00
elaps:  diagon           18       9.472     170.491     4.47
elaps:  c-eigval       7053       0.012      83.121     2.18
elaps:  c-buildHS      7053       0.000       1.885     0.05
elaps:  cdiag         13965       0.012     163.881     4.29
elaps:  cdiag1        13965       0.001      15.429     0.40
elaps:  cdiag2        13965       0.004      53.302     1.40
elaps:  cdiag3        13965       0.006      87.975     2.30
elaps:  cdiag4        13965       0.000       1.887     0.05
elaps:  c-eigvec       6912       0.012      84.613     2.22
elaps:  c-buildD       6912       0.001       4.665     0.12
elaps:  DHSCF4            1      18.505      18.505     0.48
elaps:  dfscf             1       2.322       2.322     0.06
elaps:  DFHFX             1     136.355     136.355     3.57
elaps:  HFX_gradie        1       0.000       0.000     0.00
elaps:  HFX_gradie        0    Infinity    3797.375    99.46
elaps:  overfsm           1       0.015       0.015     0.00
elaps:  optical           1       0.001       0.001     0.00
  
>> End of run:   5-JUL-2023   5:18:17
