Siesta Version  : 4.1.5
Architecture    : x86_64-intel
Compiler version: ifort (IFORT) 19.0.3.199 20190206
Compiler flags  : mpiifort -O2 -g -fPIC -fp-model source
PP flags        : -DMPI -DFC_HAVE_ABORT -DHAVE_LIBINT
Libraries       :  -L/public/software/intel/2019/mkl/lib/intel64 -lmkl_intel_lp64 -lmkl_core -llmkl_sequential -lmkl_scalapack_lp64 -lmkl_blacs_intelmpi_lp64 /public/home/xmqin/MathLibs/libint/1.1.5/intel/lib/libderiv.a /public/home/xmqin/MathLibs/libint/1.1.5/intel/lib/libint.a -lpthread -lstdc++
PARALLEL version

* Running on 24 nodes in parallel
>> Start of run:   7-FEB-2024  13:52:37

                           ***********************       
                           *  WELCOME TO SIESTA  *       
                           ***********************       

reinit: Reading from standard input
reinit: Dumped input in INPUT_TMP.77338
************************** Dump of input data file ****************************
SystemName	TiO2, rutile structure.
#               Optimization of the cubic lattice constant
#		MeshCutOff energy of 1200 Ry
#               6 x 6 x 6 Monkhorst-Pack mesh
SystemLabel	TiO2
NumberOfSpecies		2
%block ChemicalSpeciesLabel
      1      22     Ti
      2       8     O
%endblock ChemicalSpeciesLabel
%block PS.lmax
   Ti    3
    O    3
%endblock PS.lmax
%block PAO.Basis
Ti    5      2.0345829
 n=3    0    1   E     83.6767677       2.7383082
   3.6693821
   1.00000000000000
 n=4    0    2   E     101.4085969       4.8177690
   5.2616626            3.2826160
   1.00000000000000        1.00000000000000
 n=3    1    1   E     19.7689470       2.5835443
   3.9726775
   1.00000000000000
 n=4    1    1   E     98.6765931       2.1236661
   3.6530292
   1.00000000000000
 n=3    2    2   E     53.8948464       4.2974121
    5.0381797            3.1486843
   1.00000000000000        1.00000000000000
O     3     -.5074421
 n=2    0    2   E      40.5163425       3.7494516
   4.3573191            2.8372895
   1.00000000000000        1.00000000000000
 n=2    1    2   E      36.6791481       3.7987264
   5.1791638            3.7253647
   1.00000000000000        1.00000000000000
 n=3    2    1   E      20.9602331       1.3492424
   3.0497870
   1.00000000000000
%endblock PAO.Basis
%block NAO2GTO
Ti   7
3  0  1  5
    0.49203199E+00     0.79732003E+00
    0.14577260E+01     0.44359165E+01
    0.20408164E+01    -0.32221986E+01
    0.28571429E+01    -0.17884217E+01
    0.40000000E+01     0.13076243E+01
4  0  1  5
    0.19533627E+00    -0.24010055E+01
    0.27347078E+00     0.23184128E+01
    0.17425747E+01     0.43645876E+01
    0.24396045E+01    -0.46648239E+01
    0.34154462E+01     0.13194612E+01
4  0  2  5
    0.62950942E+00    -0.18755778E+02
    0.88131317E+00     0.52654236E+02
    0.12338384E+01    -0.65438688E+02
    0.17273738E+01     0.47594744E+02
    0.24183232E+01    -0.13479616E+02
3  1  1  3
0.552001354053265      0.730345175874573
4.32705508804188       -0.284123677310724
1.60555475567057       2.97516756165431
4  1  1  4
    0.57827367E+00    -0.51486511E+01
    0.80958313E+00     0.71017386E+01
    0.31548145E+01     0.28606254E+01
    0.44167402E+01    -0.14352164E+01
3  2  1  4
0.330866571074327      0.17864807160686
6.65509839634718       -1.03276730765004
3.2827256134639        6.82773157744008
1.09901679197456       1.41107399473128
3  2  2  4
0.689195064082229      0.829280129806296
1.87470008147885       2.46867016140883
5.21624665118724       -5.24885435464808
4.03424862850695       10.3718164116568
O   5
2  0  1  5
4.13969327531419       17.8517889785121
0.813524221624063      1.05544869844859
0.26356283523924       0.511716302225971
3.71709846118363       -36.6455997458304
3.31964661491497       18.4274040828819
2  0  2  5
1.12924238829874       75.8653711360624
1.40861991323814       72.7518795764575
3.89733938549867       34.8165245433104
1.24855706899024       -143.16182270615
3.7379375989639        -38.8950205037079
2  1  1  4
3.97724481404075       3.71587474310853
1.07184239957366       1.40154046038399
9.67716961909106       -0.475766355971558
0.245785749776917      0.289484324753684
2  1  2  4
0.456998833473644      0.663017266106266
1.54021978311553       1.89672498574229
5.66425136770417       52.8313039006616
5.81048718488705       -49.6736080862657
3  2  1  3
1.48619546790924       -17.9822526709869
1.58657873370156       17.5010607294238
0.78441276292696       2.4935628702104
%endblock NAO2GTO
%block kgrid_Monkhorst_Pack
   8  0  0  0.5
   0  8  0  0.5
   0  0  12  0.5
%endblock kgrid_Monkhorst_Pack
BandLinesScale ReciprocalLatticeVectors
%block BandLines
 1  0.000  0.000  0.000 G
20  0.000  0.500  0.000 X
20  0.000  0.500  0.500 R
20  0.000  0.000  0.500 Z
20  0.000  0.000  0.000 G
20  0.500  0.500  0.000 M
20  0.500  0.500  0.500 A
20  0.000  0.000  0.500 Z
%endblock BandLines
%include coord.fdf
MeshCutoff             250 Ry
XC.Functional          GGA
XC.Authors            HSE06
SpinPolarized          .false.
DM.NumberPulay         6
DM.MixingWeight        0.2000      # New DM amount for next SCF cycle
DM.Tolerance           1.d-4       # Tolerance in maximum difference
                                   # between input and output DM
MaxSCFIterations       200
Diag.DivideAndConquer  .false.
#
# Options for saving/reading information
#
DM.UseSaveDM            .true.        # Use DM Continuation files
MD.UseSaveXV            .false.      # Use stored positions and velocities
MD.UseSaveCG            .false.      # Use CG history information
WriteIonPlotFiles       .true.
#
# Molecular dynamics and relaxations
#
MD.TypeOfRun            cg          # Type of dynamics:
                                    #   - CG
DM.AllowExtrapolation   .true.
MD.VariableCell         .false.      # The lattice is relaxed together with
                                    # the atomic coordinates?
MD.NumCGsteps            200          # Number of CG steps for
                                    #   coordinate optimization
MD.MaxCGDispl           0.3 Bohr    # Maximum atomic displacement
                                    #   in one CG step
MD.MaxForceTol          0.01 eV/Ang # Tolerance in the maximum
                                    #   atomic force
MD.MaxStressTol         0.0001 eV/Ang**3
%block GeometryConstraints
   routine constr
%endblock GeometryConstraints
SCF.MixAfterConvergence F
#WriteIonPlotFiles        .true.
KB.New.Reference.Orbitals .true.
HFX.UseFittedNAOs                    T
HFX.TruncateDM                    T
HFX.DumpFitData                   T
HFX.FarField                      T
HFX.FitDataPoints               500
HFX.FarFieldTolerance     0.100E-05
HFX.PairListTolerance     0.100E-05
HFX.SchwarzTolerance      0.100E-05
HFX.StoreERIsTolerance    0.100E-05
HFX.Omega                 0.110E+00
HFX.MinimumNumberGaussians                  4
HFX.MaximumNumberGaussians                  5
HFX.SeparationExponents                 0.140E+01
HFX.ToleranceFit                 0.100E-02
HFX.GaussianEPS                 0.100E-04
HFX.Dynamic_parallel                    F
HFX.FragSize               10000
************************** End of input data file *****************************

reinit: -----------------------------------------------------------------------
reinit: System Name: TiO2, rutile structure.
reinit: -----------------------------------------------------------------------
reinit: System Label: TiO2
reinit: -----------------------------------------------------------------------

initatom: Reading input for the pseudopotentials and atomic orbitals ----------
Species number:   1 Atomic number:   22 Label: Ti
Species number:   2 Atomic number:    8 Label: O
 
Ground state valence configuration:   4s02  3d02
Reading pseudopotential information in formatted form from Ti.psf

Pseudopotential generated from a relativistic atomic calculation

Valence configuration for pseudopotential generation:
3s( 2.00) rc: 1.49
3p( 6.00) rc: 1.40
3d( 2.00) rc: 1.49
4f( 0.00) rc: 1.98
Dumping pseudopotential information in formatted form in Ti.psdump
Ground state valence configuration:   2s02  2p04
Reading pseudopotential information in formatted form from O.psf

Valence configuration for pseudopotential generation:
2s( 2.00) rc: 1.14
2p( 4.00) rc: 1.14
3d( 0.00) rc: 1.14
4f( 0.00) rc: 1.14
Dumping pseudopotential information in formatted form in O.psdump
Semicore shell(s) with  8 electrons included in the valence for
Ti
relmxkb: Read Max KB Ang. Momentum=    3 for species Ti
relmxkb: Read Max KB Ang. Momentum=    3 for species O

<basis_specs>
===============================================================================
Ti                   Z=  22    Mass=  47.880        Charge=  2.0346    
Lmxo=2 Lmxkb= 3    BasisType=split      Semic=T
L=0  Nsemic=1  Cnfigmx=4
          i=1  nzeta=1  polorb=0  (3s)
            splnorm:   0.15000    
               vcte:    83.677    
               rinn:    2.7383    
               qcoe:    0.0000    
               qyuk:    0.0000    
               qwid:   0.10000E-01
                rcs:    3.6694    
            lambdas:    1.0000    
          i=2  nzeta=2  polorb=0  (4s)
            splnorm:   0.15000    
               vcte:    101.41    
               rinn:    4.8178    
               qcoe:    0.0000    
               qyuk:    0.0000    
               qwid:   0.10000E-01
                rcs:    5.2617      3.2826    
            lambdas:    1.0000      1.0000    
L=1  Nsemic=1  Cnfigmx=4
          i=1  nzeta=1  polorb=0  (3p)
            splnorm:   0.15000    
               vcte:    19.769    
               rinn:    2.5835    
               qcoe:    0.0000    
               qyuk:    0.0000    
               qwid:   0.10000E-01
                rcs:    3.9727    
            lambdas:    1.0000    
          i=2  nzeta=1  polorb=0  (4p)
            splnorm:   0.15000    
               vcte:    98.677    
               rinn:    2.1237    
               qcoe:    0.0000    
               qyuk:    0.0000    
               qwid:   0.10000E-01
                rcs:    3.6530    
            lambdas:    1.0000    
L=2  Nsemic=0  Cnfigmx=3
          i=1  nzeta=2  polorb=0  (3d)
            splnorm:   0.15000    
               vcte:    53.895    
               rinn:    4.2974    
               qcoe:    0.0000    
               qyuk:    0.0000    
               qwid:   0.10000E-01
                rcs:    5.0382      3.1487    
            lambdas:    1.0000      1.0000    
-------------------------------------------------------------------------------
L=0  Nkbl=2  erefs: 0.17977+309 0.17977+309
L=1  Nkbl=2  erefs: 0.17977+309 0.17977+309
L=2  Nkbl=1  erefs: 0.17977+309
L=3  Nkbl=1  erefs: 0.17977+309
===============================================================================
</basis_specs>

atom: Called for Ti                    (Z =  22)

read_vps: Pseudopotential generation method:
read_vps: ATM3      Troullier-Martins                       
Valence charge for ps generation:   10.00000

read_vps: Pseudopotential includes a core correction:
read_vps: Pseudo-core for xc-correction

atom: Pseudopotential generated from an ionic configuration
atom: with net charge 2.00

xc_check: Exchange-correlation functional:
xc_check: Hybrid Heyd-Scuseria-Ernzerhof 2006
 (JCP 125, 224106, 2006)
xc_check: WARNING: Pseudopotential generated with GGA PBE functional
V l=0 = -2*Zval/r beyond r=  1.4680
V l=1 = -2*Zval/r beyond r=  1.3964
V l=2 = -2*Zval/r beyond r=  1.4680
V l=3 = -2*Zval/r beyond r=  1.9570
All V_l potentials equal beyond r=  1.9570
This should be close to max(r_c) in ps generation
All pots = -2*Zval/r beyond r=  1.9570

VLOCAL1: 99.0% of the norm of Vloc inside     11.334 Ry
VLOCAL1: 99.9% of the norm of Vloc inside     25.831 Ry
atom: Maximum radius for 4*pi*r*r*local-pseudopot. charge    2.39028
atom: Maximum radius for r*vlocal+2*Zval:    2.08320
KBgen: More than one KB projector for l=  0
KBgen: ghost states analysis will be not performed
KBgen: More than one KB projector for l=  1
KBgen: ghost states analysis will be not performed
GHOST: No ghost state for L =  2
GHOST: No ghost state for L =  3

KBgen: Kleinman-Bylander projectors: 
   l= 0   rc=  2.135936   el= -5.764767   Ekb= -5.125685   kbcos= -0.420000
   l= 0   rc=  2.245453   el= -1.291727   Ekb= 12.434879   kbcos=  0.057190
   l= 1   rc=  2.135936   el= -4.022935   Ekb= -4.112979   kbcos= -0.770781
   l= 1   rc=  2.302300   el= -0.914657   Ekb= -2.085632   kbcos= -0.073596
   l= 2   rc=  2.109401   el= -1.447420   Ekb=-13.073840   kbcos= -0.511022
   l= 3   rc=  2.390280   el= -0.285284   Ekb= -1.791533   kbcos= -0.015473

KBgen: Total number of Kleinman-Bylander projectors:   20
atom: -------------------------------------------------------------------------

atom: SANKEY-TYPE ORBITALS:
atom: Selected multiple-zeta basis: split     

atom: basis set generated (by rescaling the valence charge)
atom: for a cation of charge   2.0346

SPLIT: Orbitals with angular momentum L= 0

SPLIT: Basis orbitals for state 3s

   izeta = 1
                 lambda =    1.000000
                     rc =    3.702200
                 energy =   -5.820752
                kinetic =    2.065229
    potential(screened) =   -7.885980
       potential(ionic) =  -22.772721

SPLIT: Basis orbitals for state 4s

   izeta = 1
                 lambda =    1.000000
                     rc =    5.253718
                 energy =   -1.269433
                kinetic =    1.398160
    potential(screened) =   -2.667593
       potential(ionic) =  -10.887205

   izeta = 2
                 rmatch =    3.267166
              splitnorm =    1.049891
                 energy =    0.069742
                kinetic =    5.019103
    potential(screened) =   -4.949361
       potential(ionic) =  -17.352313

SPLIT: Orbitals with angular momentum L= 1

SPLIT: Basis orbitals for state 3p

   izeta = 1
                 lambda =    1.000000
                     rc =    3.990551
                 energy =   -4.076291
                kinetic =    4.877986
    potential(screened) =   -8.954277
       potential(ionic) =  -23.350293

SPLIT: Basis orbitals for state 4p

   izeta = 1
                 lambda =    1.000000
                     rc =    3.702200
                 energy =    0.662948
                kinetic =    5.823607
    potential(screened) =   -5.160659
       potential(ionic) =  -16.063964

SPLIT: Orbitals with angular momentum L= 2

SPLIT: Basis orbitals for state 3d

   izeta = 1
                 lambda =    1.000000
                     rc =    5.124001
                 energy =   -1.490771
                kinetic =    7.451021
    potential(screened) =   -8.941792
       potential(ionic) =  -21.778288

   izeta = 2
                 rmatch =    3.186497
              splitnorm =    0.078037
                 energy =   -1.368633
                kinetic =    9.280614
    potential(screened) =  -10.649247
       potential(ionic) =  -24.606452
atom: Total number of Sankey-type orbitals: 19

atm_pop: Valence configuration (for local Pseudopot. screening):
 3s( 2.00) 4s( 2.00)                                                  
 3p( 6.00) 4p( 0.00)                                                  
 3d( 2.00)                                                            
Vna: chval, zval:   12.00000  12.00000

Vna:  Cut-off radius for the neutral-atom potential:   5.253718
comcore: Pseudo-core radius Rcore=  1.663443

atom: _________________________________________________________________________

<basis_specs>
===============================================================================
O                    Z=   8    Mass=  16.000        Charge=-0.50744    
Lmxo=2 Lmxkb= 3    BasisType=split      Semic=F
L=0  Nsemic=0  Cnfigmx=2
          i=1  nzeta=2  polorb=0  (2s)
            splnorm:   0.15000    
               vcte:    40.516    
               rinn:    3.7495    
               qcoe:    0.0000    
               qyuk:    0.0000    
               qwid:   0.10000E-01
                rcs:    4.3573      2.8373    
            lambdas:    1.0000      1.0000    
L=1  Nsemic=0  Cnfigmx=2
          i=1  nzeta=2  polorb=0  (2p)
            splnorm:   0.15000    
               vcte:    36.679    
               rinn:    3.7987    
               qcoe:    0.0000    
               qyuk:    0.0000    
               qwid:   0.10000E-01
                rcs:    5.1792      3.7254    
            lambdas:    1.0000      1.0000    
L=2  Nsemic=0  Cnfigmx=3
          i=1  nzeta=1  polorb=0  (3d)
            splnorm:   0.15000    
               vcte:    20.960    
               rinn:    1.3492    
               qcoe:    0.0000    
               qyuk:    0.0000    
               qwid:   0.10000E-01
                rcs:    3.0498    
            lambdas:    1.0000    
-------------------------------------------------------------------------------
L=0  Nkbl=1  erefs: 0.17977+309
L=1  Nkbl=1  erefs: 0.17977+309
L=2  Nkbl=1  erefs: 0.17977+309
L=3  Nkbl=1  erefs: 0.17977+309
===============================================================================
</basis_specs>

atom: Called for O                     (Z =   8)

read_vps: Pseudopotential generation method:
read_vps: ATM 3.2.2 Troullier-Martins                       
Valence charge for ps generation:    6.00000

read_vps: Pseudopotential includes a core correction:
read_vps: Pseudo-core for xc-correction

xc_check: Exchange-correlation functional:
xc_check: Hybrid Heyd-Scuseria-Ernzerhof 2006
 (JCP 125, 224106, 2006)
xc_check: WARNING: Pseudopotential generated with GGA PBE functional
V l=0 = -2*Zval/r beyond r=  1.1278
V l=1 = -2*Zval/r beyond r=  1.1278
V l=2 = -2*Zval/r beyond r=  1.1278
V l=3 = -2*Zval/r beyond r=  1.1278
All V_l potentials equal beyond r=  1.1278
This should be close to max(r_c) in ps generation
All pots = -2*Zval/r beyond r=  1.1278

VLOCAL1: 99.0% of the norm of Vloc inside     34.126 Ry
VLOCAL1: 99.9% of the norm of Vloc inside     77.774 Ry
atom: Maximum radius for 4*pi*r*r*local-pseudopot. charge    1.37759
atom: Maximum radius for r*vlocal+2*Zval:    1.18566
GHOST: No ghost state for L =  0
GHOST: No ghost state for L =  1
GHOST: No ghost state for L =  2
GHOST: No ghost state for L =  3

KBgen: Kleinman-Bylander projectors: 
   l= 0   rc=  1.262145   el= -1.757696   Ekb=  9.224596   kbcos=  0.328555
   l= 1   rc=  1.262145   el= -0.664256   Ekb= -7.912306   kbcos= -0.392927
   l= 2   rc=  1.343567   el=  0.008846   Ekb= -1.926787   kbcos= -0.000012
   l= 3   rc=  1.394919   el=  0.013176   Ekb= -0.739431   kbcos= -0.000000

KBgen: Total number of Kleinman-Bylander projectors:   16
atom: -------------------------------------------------------------------------

atom: SANKEY-TYPE ORBITALS:
atom: Selected multiple-zeta basis: split     

atom: basis set generated (by rescaling the valence charge)
atom: for an anion of charge  -0.5074

SPLIT: Orbitals with angular momentum L= 0

SPLIT: Basis orbitals for state 2s

   izeta = 1
                 lambda =    1.000000
                     rc =    4.351355
                 energy =   -1.747055
                kinetic =    1.412089
    potential(screened) =   -3.159144
       potential(ionic) =  -10.872301

   izeta = 2
                 rmatch =    2.844677
              splitnorm =    0.125259
                 energy =   -1.628262
                kinetic =    2.125264
    potential(screened) =   -3.753525
       potential(ionic) =  -12.078960

SPLIT: Orbitals with angular momentum L= 1

SPLIT: Basis orbitals for state 2p

   izeta = 1
                 lambda =    1.000000
                     rc =    5.183594
                 energy =   -0.638353
                kinetic =    4.001595
    potential(screened) =   -4.639948
       potential(ionic) =  -11.863559

   izeta = 2
                 rmatch =    3.745203
              splitnorm =    0.073489
                 energy =   -0.625565
                kinetic =    5.194651
    potential(screened) =   -5.820216
       potential(ionic) =  -13.726130

SPLIT: Orbitals with angular momentum L= 2

SPLIT: Basis orbitals for state 3d

   izeta = 1
                 lambda =    1.000000
                     rc =    3.066256
                 energy =    2.883971
                kinetic =    4.828539
    potential(screened) =   -1.944568
       potential(ionic) =   -8.438976
atom: Total number of Sankey-type orbitals: 13

atm_pop: Valence configuration (for local Pseudopot. screening):
 2s( 2.00)                                                            
 2p( 4.00)                                                            
 3d( 0.00)                                                            
Vna: chval, zval:    6.00000   6.00000

Vna:  Cut-off radius for the neutral-atom potential:   5.183594
comcore: Pseudo-core radius Rcore=  1.377587

atom: _________________________________________________________________________

prinput: Basis input ----------------------------------------------------------

PAO.BasisType split     

%block ChemicalSpeciesLabel
    1   22 Ti                      # Species index, atomic number, species label
    2    8 O                       # Species index, atomic number, species label
%endblock ChemicalSpeciesLabel

%block PAO.Basis                 # Define Basis set
Ti                    5   2.035            # Label, l-shells, ionic net charge
 n=3   0   1                         # n, l, Nzeta 
   3.702   
   1.000   
 n=4   0   2                         # n, l, Nzeta 
   5.254      3.267   
   1.000      1.000   
 n=3   1   1                         # n, l, Nzeta 
   3.991   
   1.000   
 n=4   1   1                         # n, l, Nzeta 
   3.702   
   1.000   
 n=3   2   2                         # n, l, Nzeta 
   5.124      3.186   
   1.000      1.000   
O                     3  -0.507            # Label, l-shells, ionic net charge
 n=2   0   2                         # n, l, Nzeta 
   4.351      2.845   
   1.000      1.000   
 n=2   1   2                         # n, l, Nzeta 
   5.184      3.745   
   1.000      1.000   
 n=3   2   1                         # n, l, Nzeta 
   3.066   
   1.000   
%endblock PAO.Basis

prinput: ----------------------------------------------------------------------

************************ Begin: HYBRID XC INITIALIZATION **********************

nao2gto_transfer: isp, inlz, ipgf, pgf_radius =     1    1    1     4.83722
nao2gto_transfer: isp, inlz, ipgf, pgf_radius =     1    1    2     2.81031
nao2gto_transfer: isp, inlz, ipgf, pgf_radius =     1    1    3     2.37515
nao2gto_transfer: isp, inlz, ipgf, pgf_radius =     1    1    4     2.00737
nao2gto_transfer: isp, inlz, ipgf, pgf_radius =     1    1    5     1.69654
nao2gto_transfer: isp, inlz, shell_radius =     1    1     4.83722     3.70220
nao2gto_transfer: isp, inlz, ipgf, pgf_radius =     1    2    1     7.67717
nao2gto_transfer: isp, inlz, ipgf, pgf_radius =     1    2    2     6.48840
nao2gto_transfer: isp, inlz, ipgf, pgf_radius =     1    2    3     2.57038
nao2gto_transfer: isp, inlz, ipgf, pgf_radius =     1    2    4     2.17237
nao2gto_transfer: isp, inlz, ipgf, pgf_radius =     1    2    5     1.83598
nao2gto_transfer: isp, inlz, shell_radius =     1    2     7.67717     5.25372
nao2gto_transfer: isp, inlz, ipgf, pgf_radius =     1    3    1     4.27653
nao2gto_transfer: isp, inlz, ipgf, pgf_radius =     1    3    2     3.61433
nao2gto_transfer: isp, inlz, ipgf, pgf_radius =     1    3    3     3.05467
nao2gto_transfer: isp, inlz, ipgf, pgf_radius =     1    3    4     2.58166
nao2gto_transfer: isp, inlz, ipgf, pgf_radius =     1    3    5     2.18190
nao2gto_transfer: isp, inlz, shell_radius =     1    3     4.27653     3.26717
nao2gto_transfer: isp, inlz, ipgf, pgf_radius =     1    4    1     4.87082
nao2gto_transfer: isp, inlz, ipgf, pgf_radius =     1    4    2     1.66697
nao2gto_transfer: isp, inlz, ipgf, pgf_radius =     1    4    3     2.79478
nao2gto_transfer: isp, inlz, shell_radius =     1    4     4.87082     3.99055
nao2gto_transfer: isp, inlz, ipgf, pgf_radius =     1    5    1     4.75450
nao2gto_transfer: isp, inlz, ipgf, pgf_radius =     1    5    2     3.99130
nao2gto_transfer: isp, inlz, ipgf, pgf_radius =     1    5    3     1.96559
nao2gto_transfer: isp, inlz, ipgf, pgf_radius =     1    5    4     1.64922
nao2gto_transfer: isp, inlz, shell_radius =     1    5     4.75450     3.70220
nao2gto_transfer: isp, inlz, ipgf, pgf_radius =     1    6    1     6.81128
nao2gto_transfer: isp, inlz, ipgf, pgf_radius =     1    6    2     1.34904
nao2gto_transfer: isp, inlz, ipgf, pgf_radius =     1    6    3     1.98079
nao2gto_transfer: isp, inlz, ipgf, pgf_radius =     1    6    4     3.57702
nao2gto_transfer: isp, inlz, shell_radius =     1    6     6.81128     5.12400
nao2gto_transfer: isp, inlz, ipgf, pgf_radius =     1    7    1     4.59690
nao2gto_transfer: isp, inlz, ipgf, pgf_radius =     1    7    2     2.68212
nao2gto_transfer: isp, inlz, ipgf, pgf_radius =     1    7    3     1.54038
nao2gto_transfer: isp, inlz, ipgf, pgf_radius =     1    7    4     1.77122
nao2gto_transfer: isp, inlz, shell_radius =     1    7     4.59690     3.18650
nao2gto_transfer: isp, kind_radius =     1     7.67717
nao2gto_transfer: isp, inlz, ipgf, pgf_radius =     2    1    1     1.66766
nao2gto_transfer: isp, inlz, ipgf, pgf_radius =     2    1    2     3.76190
nao2gto_transfer: isp, inlz, ipgf, pgf_radius =     2    1    3     6.60923
nao2gto_transfer: isp, inlz, ipgf, pgf_radius =     2    1    4     1.75991
nao2gto_transfer: isp, inlz, ipgf, pgf_radius =     2    1    5     1.86229
nao2gto_transfer: isp, inlz, shell_radius =     2    1     6.60923     4.35135
nao2gto_transfer: isp, inlz, ipgf, pgf_radius =     2    2    1     3.19300
nao2gto_transfer: isp, inlz, ipgf, pgf_radius =     2    2    2     2.85888
nao2gto_transfer: isp, inlz, ipgf, pgf_radius =     2    2    3     1.71873
nao2gto_transfer: isp, inlz, ipgf, pgf_radius =     2    2    4     3.03661
nao2gto_transfer: isp, inlz, ipgf, pgf_radius =     2    2    5     1.75500
nao2gto_transfer: isp, inlz, shell_radius =     2    2     3.19300     2.84468
nao2gto_transfer: isp, inlz, ipgf, pgf_radius =     2    3    1     1.74191
nao2gto_transfer: isp, inlz, ipgf, pgf_radius =     2    3    2     3.44911
nao2gto_transfer: isp, inlz, ipgf, pgf_radius =     2    3    3     1.09503
nao2gto_transfer: isp, inlz, ipgf, pgf_radius =     2    3    4     7.41574
nao2gto_transfer: isp, inlz, shell_radius =     2    3     7.41574     5.18359
nao2gto_transfer: isp, inlz, ipgf, pgf_radius =     2    4    1     5.37324
nao2gto_transfer: isp, inlz, ipgf, pgf_radius =     2    4    2     2.85590
nao2gto_transfer: isp, inlz, ipgf, pgf_radius =     2    4    3     1.44844
nao2gto_transfer: isp, inlz, ipgf, pgf_radius =     2    4    4     1.42929
nao2gto_transfer: isp, inlz, shell_radius =     2    4     5.37324     3.74520
nao2gto_transfer: isp, inlz, ipgf, pgf_radius =     2    5    1     3.04022
nao2gto_transfer: isp, inlz, ipgf, pgf_radius =     2    5    2     2.93491
nao2gto_transfer: isp, inlz, ipgf, pgf_radius =     2    5    3     4.28826
nao2gto_transfer: isp, inlz, shell_radius =     2    5     4.28826     3.06626
nao2gto_transfer: isp, kind_radius =     2     7.41574

nao2gto_print_info: NAO2GTO fitting information -------------------------------

# %%% HYBRID XC FDF BEGIN

# XC parameters with a short-range EXX potential
XC.functional   GGA
XC.authors      HSE06

# The NAO2GTO block is structured as following:
#
#     species1 norbs_species1
#     n1 l1 zeta1 ngaussians_orbital1
#     exponent_gaussian1 coefficient_gaussian1
#     exponent_gaussian2 coefficient_gaussian2
#     exponent_gaussian3 coefficient_gaussian3
#     ...
#     n2 l2 zeta2 ngaussians_orbital2
#     exponent_gaussian1 coefficient_gaussian1
#     ...
#     species2 norbs_species2
#     ...
#
%block NAO2GTO
Ti   7
3  0  1  5
    0.49203199E+00     0.79732003E+00
    0.14577260E+01     0.44359165E+01
    0.20408164E+01    -0.32221986E+01
    0.28571429E+01    -0.17884217E+01
    0.40000000E+01     0.13076243E+01
4  0  1  5
    0.19533627E+00    -0.24010055E+01
    0.27347078E+00     0.23184128E+01
    0.17425747E+01     0.43645876E+01
    0.24396045E+01    -0.46648239E+01
    0.34154462E+01     0.13194612E+01
4  0  2  5
    0.62950942E+00    -0.18755778E+02
    0.88131317E+00     0.52654236E+02
    0.12338384E+01    -0.65438688E+02
    0.17273738E+01     0.47594744E+02
    0.24183232E+01    -0.13479616E+02
3  1  1  3
    0.55200135E+00     0.73034518E+00
    0.43270551E+01    -0.28412368E+00
    0.16055548E+01     0.29751676E+01
4  1  1  4
    0.57827367E+00    -0.51486511E+01
    0.80958313E+00     0.71017386E+01
    0.31548145E+01     0.28606254E+01
    0.44167402E+01    -0.14352164E+01
3  2  1  4
    0.33086657E+00     0.17864807E+00
    0.66550984E+01    -0.10327673E+01
    0.32827256E+01     0.68277316E+01
    0.10990168E+01     0.14110740E+01
3  2  2  4
    0.68919506E+00     0.82928013E+00
    0.18747001E+01     0.24686702E+01
    0.52162467E+01    -0.52488544E+01
    0.40342486E+01     0.10371816E+02
O   5
2  0  1  5
    0.41396933E+01     0.17851789E+02
    0.81352422E+00     0.10554487E+01
    0.26356284E+00     0.51171630E+00
    0.37170985E+01    -0.36645600E+02
    0.33196466E+01     0.18427404E+02
2  0  2  5
    0.11292424E+01     0.75865371E+02
    0.14086199E+01     0.72751880E+02
    0.38973394E+01     0.34816525E+02
    0.12485571E+01    -0.14316182E+03
    0.37379376E+01    -0.38895021E+02
2  1  1  4
    0.39772448E+01     0.37158747E+01
    0.10718424E+01     0.14015405E+01
    0.96771696E+01    -0.47576636E+00
    0.24578575E+00     0.28948432E+00
2  1  2  4
    0.45699883E+00     0.66301727E+00
    0.15402198E+01     0.18967250E+01
    0.56642514E+01     0.52831304E+02
    0.58104872E+01    -0.49673608E+02
3  2  1  3
    0.14861955E+01    -0.17982253E+02
    0.15865787E+01     0.17501061E+02
    0.78441276E+00     0.24935629E+01
%endblock NAO2GTO

# Hartree-Fock exchange options
HFX.UseFittedNAOs                    T
HFX.TruncateDM                    T
HFX.DumpFitData                   T
HFX.FarField                      T
HFX.FitDataPoints               500
HFX.FarFieldTolerance     0.100E-05
HFX.PairListTolerance     0.100E-05
HFX.SchwarzTolerance      0.100E-05
HFX.StoreERIsTolerance    0.100E-05
HFX.Omega                 0.110E+00
HFX.MaximumNumberGaussians                  6
HFX.MaximumNumberGaussians                  5
HFX.MaximumNumberGaussians                  4
HFX.SeparationExponents                 0.140E+01
HFX.ToleranceFit                 0.100E-02
HFX.GaussianEPS                 0.100E-04
HFX.Dynamic_parallel                    F
HFX.FragSize               10000

# %%% HYBRID XC FDF END

nao2gto_print_info: END -------------------------------------------------------

Ti   7
O   5
************************ End: HYBRID XC INITIALIZATION ************************

coor:   Atomic-coordinates input format  =     Fractional

siesta: Atomic coordinates (Bohr) and species
siesta:      0.00000   0.00000   0.00000  1        1
siesta:      4.34070   4.34070   2.80058  1        2
siesta:      2.64783   2.64783   0.00000  2        3
siesta:      6.03358   6.03358   0.00000  2        4
siesta:      1.69287   6.98853   2.80058  2        5
siesta:      6.98853   1.69287   2.80058  2        6

siesta: System type = bulk      

initatomlists: Number of atoms, orbitals, and projectors:      6    90   104

siesta: ******************** Simulation parameters ****************************
siesta:
siesta: The following are some of the parameters of the simulation.
siesta: A complete list of the parameters used, including default values,
siesta: can be found in file out.fdf
siesta:
redata: Spin configuration                          = none
redata: Number of spin components                   = 1
redata: Time-Reversal Symmetry                      = T
redata: Spin spiral                                 = F
redata: Long output                                 =   F
redata: Number of Atomic Species                    =        2
redata: Charge density info will appear in .RHO file
redata: Write Mulliken Pop.                         = NO
redata: Matel table size (NRTAB)                    =     1024
redata: Mesh Cutoff                                 =   250.0000 Ry
redata: Net charge of the system                    =     0.0000 |e|
redata: Min. number of SCF Iter                     =        0
redata: Max. number of SCF Iter                     =      200
redata: SCF convergence failure will abort job
redata: SCF mix quantity                            = Hamiltonian
redata: Mix DM or H after convergence               =   F
redata: Recompute H after scf cycle                 =   F
redata: Mix DM in first SCF step                    =   T
redata: Write Pulay info on disk                    =   F
redata: New DM Occupancy tolerance                  = 0.000000000001
redata: No kicks to SCF
redata: DM Mixing Weight for Kicks                  =     0.5000
redata: Require Harris convergence for SCF          =   F
redata: Harris energy tolerance for SCF             =     0.000100 eV
redata: Require DM convergence for SCF              =   T
redata: DM tolerance for SCF                        =     0.000100
redata: Require EDM convergence for SCF             =   F
redata: EDM tolerance for SCF                       =     0.001000 eV
redata: Require H convergence for SCF               =   T
redata: Hamiltonian tolerance for SCF               =     0.001000 eV
redata: Require (free) Energy convergence for SCF   =   F
redata: (free) Energy tolerance for SCF             =     0.000100 eV
redata: Using Saved Data (generic)                  =   F
redata: Use continuation files for DM               =   T
redata: Neglect nonoverlap interactions             =   F
redata: Method of Calculation                       = Diagonalization
redata: Electronic Temperature                      =   299.9869 K
redata: Fix the spin of the system                  =   F
redata: Dynamics option                             = CG coord. optimization
redata: Variable cell                               =   F
redata: Use continuation files for CG               =   F
redata: Max atomic displ per move                   =     0.1588 Ang
redata: Maximum number of optimization moves        =      200
redata: Force tolerance                             =     0.0100 eV/Ang
mix.SCF: Pulay mixing                            = Pulay
mix.SCF:    Variant                              = stable
mix.SCF:    History steps                        = 6
mix.SCF:    Linear mixing weight                 =     0.200000
mix.SCF:    Mixing weight                        =     0.200000
mix.SCF:    SVD condition                        = 0.1000E-07
redata: ***********************************************************************

%block SCF.Mixers
  Pulay
%endblock SCF.Mixers

%block SCF.Mixer.Pulay
  # Mixing method
  method pulay
  variant stable

  # Mixing options
  weight 0.2000
  weight.linear 0.2000
  history 6
%endblock SCF.Mixer.Pulay
 
Requested Extrapolation for geometry relaxation. DM_history_depth: 1
Size of DM history Fstack: 1
Total number of electrons:    48.000000
Total ionic charge:    48.000000

* ProcessorY, Blocksize:    4   3


* Orbital distribution balance (max,min):     6     3

 Kpoints in:          384 . Kpoints trimmed:          384

siesta: k-grid: Number of k-points =   384
siesta: k-grid: Cutoff (effective) =    17.784 Ang
siesta: k-grid: Supercell and displacements
siesta: k-grid:    8   0   0      0.500
siesta: k-grid:    0   8   0      0.500
siesta: k-grid:    0   0  12      0.500
 
diag: Algorithm                                     = Expert
diag: Parallel over k                               =   F
diag: Use parallel 2D distribution                  =   T
diag: Parallel block-size                           = 3
diag: Parallel distribution                         =     4 x     6
diag: Used triangular part                          = Lower
diag: Absolute tolerance                            =  0.100E-15
diag: Orthogonalization factor                      =  0.100E-05
diag: Memory factor                                 =  1.0000
Using current reciprocal lattice vectors for BandLinesScale
Beware any cell changes by the end of the run
Using current reciprocal lattice vectors for BandLinesScale
Beware any cell changes by the end of the run

superc: Internal auxiliary supercell:     5 x     5 x     7  =     175
superc: Number of atoms, orbitals, and projectors:   1050  15750  18200
 
siesta: Constraints using custom constr routine
 
ts: **************************************************************
ts: Save H and S matrices                           =    F
ts: Save DM and EDM matrices                        =    F
ts: Only save the overlap matrix S                  =    F
ts: **************************************************************
 
************************ Begin: TS CHECKS AND WARNINGS ************************
************************ End: TS CHECKS AND WARNINGS **************************


                     ====================================
                        Begin CG opt. move =      0
                     ====================================

superc: Internal auxiliary supercell:     5 x     5 x     7  =     175
superc: Number of atoms, orbitals, and projectors:   1050  15750  18200

outcell: Unit cell vectors (Ang):
        4.594000    0.000000    0.000000
        0.000000    4.594000    0.000000
        0.000000    0.000000    2.964000

outcell: Cell vector modules (Ang)   :    4.594000    4.594000    2.964000
outcell: Cell angles (23,13,12) (deg):     90.0000     90.0000     90.0000
outcell: Cell volume (Ang**3)        :     62.5547
<dSpData1D:S at geom step 0
  <sparsity:sparsity for geom step 0
    nrows_g=90 nrows=6 sparsity=1.3649 nnzs=11056, refcount: 7>
  <dData1D:(new from dSpData1D) n=11056, refcount: 1>
refcount: 1>
new_DM -- step:     1
Initializing Density Matrix...
 
Attempting to read DM from file... Failed...
DM filled with atomic data:
<dSpData2D:DM initialized from atoms
  <sparsity:sparsity for geom step 0
    nrows_g=90 nrows=6 sparsity=1.3649 nnzs=11056, refcount: 8>
  <dData2D:DM n=11056 m=1, refcount: 1>
refcount: 1>
calc_prescreen_eri: max_eri_prescreen      0.12549642E+01
init_prescreen_eri: nelem_ij =       716625
init_prescreen_eri: nelem_kl =    125409375
init_prescreen_eri: list_ij  :         4400
init_prescreen_eri: list_kl  :       770000
init_prescreen_eri: max_eri =         0.125496E+01
No. of atoms with KB's overlaping orbs in proc 0. Max # of overlaps:      58     491
New grid distribution:   1
           1       1:   24    1:    6    1:    3
           2       1:   24    1:    6    4:    6
           3       1:   24    1:    6    7:    9
           4       1:   24    1:    6   10:   11
           5       1:   24    1:    6   12:   13
           6       1:   24    1:    6   14:   15
           7       1:   24    7:   12    1:    3
           8       1:   24    7:   12    4:    6
           9       1:   24    7:   12    7:    9
          10       1:   24    7:   12   10:   11
          11       1:   24    7:   12   12:   13
          12       1:   24    7:   12   14:   15
          13       1:   24   13:   18    1:    3
          14       1:   24   13:   18    4:    6
          15       1:   24   13:   18    7:    9
          16       1:   24   13:   18   10:   11
          17       1:   24   13:   18   12:   13
          18       1:   24   13:   18   14:   15
          19       1:   24   19:   24    1:    3
          20       1:   24   19:   24    4:    6
          21       1:   24   19:   24    7:    9
          22       1:   24   19:   24   10:   11
          23       1:   24   19:   24   12:   13
          24       1:   24   19:   24   14:   15

InitMesh: MESH =    48 x    48 x    30 =       69120
InitMesh: (bp) =    24 x    24 x    15 =        8640
InitMesh: Mesh cutoff (required, used) =   250.000   283.131 Ry
ExtMesh (bp) on 0 =   112 x    94 x    87 =      915936
New grid distribution:   2
           1       1:   12    1:    4    1:    8
           2      13:   18    5:   12    1:    7
           3      13:   24    1:    4    8:   15
           4       1:   12    1:    4    9:   15
           5      13:   18    5:   12    8:   15
           6      13:   24    1:    4    1:    7
           7       7:   12    5:   12    1:    8
           8      19:   24    5:   12    1:    7
           9      19:   24    5:   12    8:   15
          10       1:    6    5:   12    1:    8
          11       1:    6    5:   12    9:   15
          12       7:   12   17:   24    1:    7
          13      13:   24   13:   16    1:    8
          14       1:   12   13:   16    1:    7
          15       1:   12   13:   16    8:   15
          16      19:   24   17:   24    9:   15
          17      13:   24   13:   16    9:   15
          18       7:   12    5:   12    9:   15
          19      13:   18   17:   24    1:    8
          20      19:   24   17:   24    1:    8
          21       1:    6   17:   24    8:   15
          22       7:   12   17:   24    8:   15
          23      13:   18   17:   24    9:   15
          24       1:    6   17:   24    1:    7
New grid distribution:   3
           1      19:   24   17:   24    1:    8
           2       7:   12    5:   12    1:    8
           3      19:   24    5:   12    9:   15
           4      13:   24    1:    4    9:   15
           5      13:   24   13:   16    9:   15
           6       1:    6    5:   12    9:   15
           7      13:   18    5:   12    1:    8
           8       1:    6    5:   12    1:    8
           9      19:   24    5:   12    1:    8
          10       1:   12    1:    4    1:    8
          11      13:   18    5:   12    9:   15
          12       7:   12    5:   12    9:   15
          13       1:   12   13:   16    1:    8
          14      13:   24   13:   16    1:    8
          15       1:   12    1:    4    9:   15
          16      13:   18   17:   24    9:   15
          17      19:   24   17:   24    9:   15
          18       1:   12   13:   16    9:   15
          19       1:    6   17:   24    1:    8
          20       7:   12   17:   24    1:    8
          21      13:   18   17:   24    1:    8
          22      13:   24    1:    4    1:    8
          23       7:   12   17:   24    9:   15
          24       1:    6   17:   24    9:   15
Setting up quadratic distribution...
ExtMesh (bp) on 0 =   100 x    92 x    92 =      846400
PhiOnMesh: Number of (b)points on node 0 =                  384
PhiOnMesh: nlist on node 0 =                67143
setup_hfx: call #0001
 setup_hfx: HFX energy:       -152.189687  eV

stepf: Fermi-Dirac step function
setup_hfx: call #0002
 setup_hfx: HFX energy:       -172.300597  eV

siesta: Program's energy decomposition (eV):
siesta: Ebs     =     -1112.387679
siesta: Eions   =      6685.495907
siesta: Ena     =       908.894259
siesta: Ekin    =      2663.336892
siesta: Enl     =      -743.305482
siesta: Eso     =         0.000000
siesta: Edftu   =         0.000000
siesta: DEna    =      -313.351471
siesta: DUscf   =       158.313460
siesta: DUext   =         0.000000
siesta: Exc     =     -1022.046786
siesta: eta*DQ  =         0.000000
siesta: Emadel  =         0.000000
siesta: Emeta   =         0.000000
siesta: Emolmec =         0.000000
siesta: Ekinion =         0.000000
siesta: Eharris =     -4855.243801
siesta: Etot    =     -5033.655034
siesta: FreeEng =     -5033.655034

        iscf     Eharris(eV)        E_KS(eV)     FreeEng(eV)     dDmax    Ef(eV) dHmax(eV)
   scf:    1    -4855.243801    -5033.655034    -5033.655034  1.952805 -8.925347 25.145953
timer: Routine,Calls,Time,% = IterSCF        1     178.304  86.14
setup_hfx: call #0003
 setup_hfx: HFX energy:       -167.168832  eV
   scf:    2    -5110.295108    -5074.415293    -5074.415293  0.466830 -1.979214 15.745009
setup_hfx: call #0004
 setup_hfx: HFX energy:       -154.474754  eV
   scf:    3    -4995.761933    -5076.499536    -5076.500794  0.743926 -5.410965 15.799459
setup_hfx: call #0005
 setup_hfx: HFX energy:       -158.241542  eV
   scf:    4    -5113.495660    -5103.993409    -5103.993409  0.220051 -5.703011  1.651982
setup_hfx: call #0006
 setup_hfx: HFX energy:       -161.626023  eV
   scf:    5    -5091.454892    -5100.052452    -5100.052452  0.199809 -4.573113  5.966462
setup_hfx: call #0007
 setup_hfx: HFX energy:       -158.951277  eV
   scf:    6    -5105.602816    -5104.264773    -5104.264773  0.165897 -5.596371  0.136147
setup_hfx: call #0008
 setup_hfx: HFX energy:       -158.837253  eV
   scf:    7    -5104.253423    -5104.262693    -5104.262693  0.007220 -5.672483  0.158014
setup_hfx: call #0009
 setup_hfx: HFX energy:       -158.917021  eV
   scf:    8    -5104.268149    -5104.266423    -5104.266423  0.004268 -5.665790  0.018420
setup_hfx: call #0010
 setup_hfx: HFX energy:       -158.934718  eV
   scf:    9    -5104.266364    -5104.266448    -5104.266448  0.001000 -5.718108  0.019443
setup_hfx: call #0011
 setup_hfx: HFX energy:       -158.932935  eV
   scf:   10    -5104.266493    -5104.266471    -5104.266471  0.000245 -5.823906  0.007091
setup_hfx: call #0012
 setup_hfx: HFX energy:       -158.931935  eV
   scf:   11    -5104.266479    -5104.266477    -5104.266477  0.000083 -5.839455  0.002266
setup_hfx: call #0013
 setup_hfx: HFX energy:       -158.931393  eV
   scf:   12    -5104.266478    -5104.266478    -5104.266478  0.000040 -5.841296  0.000376

SCF Convergence by DM+H criterion
max |DM_out - DM_in|         :     0.0000397112
max |H_out - H_in|      (eV) :     0.0003758342
SCF cycle converged after 12 iterations

Using DM_out to compute the final energy and forces
No. of atoms with KB's overlaping orbs in proc 0. Max # of overlaps:      58     491
setup_hfx: call #0014
 setup_hfx: HFX energy:       -158.931393  eV

siesta: E_KS(eV) =            -5104.2665

siesta: E_KS - E_eggbox =     -5104.2665

siesta: Atomic forces (eV/Ang):
----------------------------------------
   Tot    0.000001    0.000012    0.000007
----------------------------------------
   Max    0.002897
   Res    0.001922    sqrt( Sum f_i^2 / 3N )
----------------------------------------
   Max    0.002897    constrained

Stress tensor Voigt[x,y,z,yz,xz,xy] (kbar):     -351.90     -351.90     -484.57       -0.00       -0.00        0.00
(Free)E + p*V (eV/cell)    -5088.8007
Target enthalpy (eV/cell)    -5104.2665

cgvc: Finished line minimization    1.  Mean atomic displacement =    0.0000

outcoor: Relaxed atomic coordinates (fractional):           
    0.00000000    0.00000000    0.00000000   1       1  Ti
    0.50000000    0.50000000    0.50000000   1       2  Ti
    0.30500000    0.30500000    0.00000000   2       3  O
    0.69500000    0.69500000    0.00000000   2       4  O
    0.19500000    0.80500000    0.50000000   2       5  O
    0.80500000    0.19500000    0.50000000   2       6  O
Computing bands...

siesta: Program's energy decomposition (eV):
siesta: Ebs     =     -1232.270108
siesta: Eions   =      6685.495907
siesta: Ena     =       908.894259
siesta: Ekin    =      2515.338748
siesta: Enl     =      -765.265931
siesta: Eso     =         0.000000
siesta: Edftu   =         0.000000
siesta: DEna    =      -121.024176
siesta: DUscf   =        27.531894
siesta: DUext   =         0.000000
siesta: Exc     =      -984.245365
siesta: eta*DQ  =         0.000000
siesta: Emadel  =         0.000000
siesta: Emeta   =         0.000000
siesta: Emolmec =         0.000000
siesta: Ekinion =         0.000000
siesta: Eharris =     -5104.266478
siesta: Etot    =     -5104.266478
siesta: FreeEng =     -5104.266478

siesta: Final energy (eV):
siesta:  Band Struct. =   -1232.270108
siesta:       Kinetic =    2515.338748
siesta:       Hartree =    1166.415419
siesta:       Edftu   =       0.000000
siesta:       Eso     =       0.000000
siesta:    Ext. field =       0.000000
siesta:   Exch.-corr. =    -984.245365
siesta:  Ion-electron =   -4946.085081
siesta:       Ion-ion =   -2855.690198
siesta:       Ekinion =       0.000000
siesta:         Total =   -5104.266478
siesta:         Fermi =      -5.841296

siesta: Stress tensor (static) (eV/Ang**3):
siesta:    -0.219635    0.000000   -0.000000
siesta:     0.000000   -0.219635   -0.000000
siesta:    -0.000000   -0.000000   -0.302439

siesta: Cell volume =         62.554734 Ang**3

siesta: Pressure (static):
siesta:                Solid            Molecule  Units
siesta:           0.00269272          0.00269239  Ry/Bohr**3
siesta:           0.24723641          0.24720639  eV/Ang**3
siesta:         396.12068150        396.07258346  kBar
(Free)E+ p_basis*V_orbitals  =       -5099.297980
(Free)Eharris+ p_basis*V_orbitals  =       -5099.297980

cite: Please see "TiO2.bib" for an exhaustive BiBTeX file.
cite: Please clearly indicate Siesta version in published work: 4.1.5
cite: This calculation has made use of the following articles
cite: which are encouraged to be cited in a published work.
        Primary SIESTA paper
          DOI: www.doi.org/10.1088/0953-8984/14/11/302
 
>> End of run:   7-FEB-2024  14:30:40
Job completed
