<pdos>
<nspin>1</nspin>
<norbitals>  23</norbitals>
<energy_values units="eV">
           -25.99997
           -25.93985
           -25.87973
           -25.81961
           -25.75949
           -25.69937
           -25.63925
           -25.57913
           -25.51901
           -25.45889
           -25.39877
           -25.33865
           -25.27853
           -25.21841
           -25.15829
           -25.09817
           -25.03805
           -24.97793
           -24.91781
           -24.85769
           -24.79757
           -24.73745
           -24.67733
           -24.61721
           -24.55709
           -24.49697
           -24.43685
           -24.37673
           -24.31661
           -24.25649
           -24.19637
           -24.13625
           -24.07613
           -24.01601
           -23.95589
           -23.89577
           -23.83565
           -23.77553
           -23.71541
           -23.65529
           -23.59517
           -23.53504
           -23.47492
           -23.41480
           -23.35468
           -23.29456
           -23.23444
           -23.17432
           -23.11420
           -23.05408
           -22.99396
           -22.93384
           -22.87372
           -22.81360
           -22.75348
           -22.69336
           -22.63324
           -22.57312
           -22.51300
           -22.45288
           -22.39276
           -22.33264
           -22.27252
           -22.21240
           -22.15228
           -22.09216
           -22.03204
           -21.97192
           -21.91180
           -21.85168
           -21.79156
           -21.73144
           -21.67132
           -21.61120
           -21.55108
           -21.49096
           -21.43084
           -21.37072
           -21.31060
           -21.25048
           -21.19036
           -21.13024
           -21.07012
           -21.01000
           -20.94988
           -20.88976
           -20.82964
           -20.76952
           -20.70940
           -20.64928
           -20.58916
           -20.52904
           -20.46892
           -20.40880
           -20.34868
           -20.28856
           -20.22844
           -20.16832
           -20.10819
           -20.04807
           -19.98795
           -19.92783
           -19.86771
           -19.80759
           -19.74747
           -19.68735
           -19.62723
           -19.56711
           -19.50699
           -19.44687
           -19.38675
           -19.32663
           -19.26651
           -19.20639
           -19.14627
           -19.08615
           -19.02603
           -18.96591
           -18.90579
           -18.84567
           -18.78555
           -18.72543
           -18.66531
           -18.60519
           -18.54507
           -18.48495
           -18.42483
           -18.36471
           -18.30459
           -18.24447
           -18.18435
           -18.12423
           -18.06411
           -18.00399
           -17.94387
           -17.88375
           -17.82363
           -17.76351
           -17.70339
           -17.64327
           -17.58315
           -17.52303
           -17.46291
           -17.40279
           -17.34267
           -17.28255
           -17.22243
           -17.16231
           -17.10219
           -17.04207
           -16.98195
           -16.92183
           -16.86171
           -16.80159
           -16.74147
           -16.68134
           -16.62122
           -16.56110
           -16.50098
           -16.44086
           -16.38074
           -16.32062
           -16.26050
           -16.20038
           -16.14026
           -16.08014
           -16.02002
           -15.95990
           -15.89978
           -15.83966
           -15.77954
           -15.71942
           -15.65930
           -15.59918
           -15.53906
           -15.47894
           -15.41882
           -15.35870
           -15.29858
           -15.23846
           -15.17834
           -15.11822
           -15.05810
           -14.99798
           -14.93786
           -14.87774
           -14.81762
           -14.75750
           -14.69738
           -14.63726
           -14.57714
           -14.51702
           -14.45690
           -14.39678
           -14.33666
           -14.27654
           -14.21642
           -14.15630
           -14.09618
           -14.03606
           -13.97594
           -13.91582
           -13.85570
           -13.79558
           -13.73546
           -13.67534
           -13.61522
           -13.55510
           -13.49498
           -13.43486
           -13.37474
           -13.31462
           -13.25449
           -13.19437
           -13.13425
           -13.07413
           -13.01401
           -12.95389
           -12.89377
           -12.83365
           -12.77353
           -12.71341
           -12.65329
           -12.59317
           -12.53305
           -12.47293
           -12.41281
           -12.35269
           -12.29257
           -12.23245
           -12.17233
           -12.11221
           -12.05209
           -11.99197
           -11.93185
           -11.87173
           -11.81161
           -11.75149
           -11.69137
           -11.63125
           -11.57113
           -11.51101
           -11.45089
           -11.39077
           -11.33065
           -11.27053
           -11.21041
           -11.15029
           -11.09017
           -11.03005
           -10.96993
           -10.90981
           -10.84969
           -10.78957
           -10.72945
           -10.66933
           -10.60921
           -10.54909
           -10.48897
           -10.42885
           -10.36873
           -10.30861
           -10.24849
           -10.18837
           -10.12825
           -10.06813
           -10.00801
            -9.94789
            -9.88776
            -9.82764
            -9.76752
            -9.70740
            -9.64728
            -9.58716
            -9.52704
            -9.46692
            -9.40680
            -9.34668
            -9.28656
            -9.22644
            -9.16632
            -9.10620
            -9.04608
            -8.98596
            -8.92584
            -8.86572
            -8.80560
            -8.74548
            -8.68536
            -8.62524
            -8.56512
            -8.50500
            -8.44488
            -8.38476
            -8.32464
            -8.26452
            -8.20440
            -8.14428
            -8.08416
            -8.02404
            -7.96392
            -7.90380
            -7.84368
            -7.78356
            -7.72344
            -7.66332
            -7.60320
            -7.54308
            -7.48296
            -7.42284
            -7.36272
            -7.30260
            -7.24248
            -7.18236
            -7.12224
            -7.06212
            -7.00200
            -6.94188
            -6.88176
            -6.82164
            -6.76152
            -6.70140
            -6.64128
            -6.58116
            -6.52104
            -6.46091
            -6.40079
            -6.34067
            -6.28055
            -6.22043
            -6.16031
            -6.10019
            -6.04007
            -5.97995
            -5.91983
            -5.85971
            -5.79959
            -5.73947
            -5.67935
            -5.61923
            -5.55911
            -5.49899
            -5.43887
            -5.37875
            -5.31863
            -5.25851
            -5.19839
            -5.13827
            -5.07815
            -5.01803
            -4.95791
            -4.89779
            -4.83767
            -4.77755
            -4.71743
            -4.65731
            -4.59719
            -4.53707
            -4.47695
            -4.41683
            -4.35671
            -4.29659
            -4.23647
            -4.17635
            -4.11623
            -4.05611
            -3.99599
            -3.93587
            -3.87575
            -3.81563
            -3.75551
            -3.69539
            -3.63527
            -3.57515
            -3.51503
            -3.45491
            -3.39479
            -3.33467
            -3.27455
            -3.21443
            -3.15431
            -3.09419
            -3.03406
            -2.97394
            -2.91382
            -2.85370
            -2.79358
            -2.73346
            -2.67334
            -2.61322
            -2.55310
            -2.49298
            -2.43286
            -2.37274
            -2.31262
            -2.25250
            -2.19238
            -2.13226
            -2.07214
            -2.01202
            -1.95190
            -1.89178
            -1.83166
            -1.77154
            -1.71142
            -1.65130
            -1.59118
            -1.53106
            -1.47094
            -1.41082
            -1.35070
            -1.29058
            -1.23046
            -1.17034
            -1.11022
            -1.05010
            -0.98998
            -0.92986
            -0.86974
            -0.80962
            -0.74950
            -0.68938
            -0.62926
            -0.56914
            -0.50902
            -0.44890
            -0.38878
            -0.32866
            -0.26854
            -0.20842
            -0.14830
            -0.08818
            -0.02806
             0.03206
             0.09218
             0.15230
             0.21242
             0.27254
             0.33266
             0.39279
             0.45291
             0.51303
             0.57315
             0.63327
             0.69339
             0.75351
             0.81363
             0.87375
             0.93387
             0.99399
             1.05411
             1.11423
             1.17435
             1.23447
             1.29459
             1.35471
             1.41483
             1.47495
             1.53507
             1.59519
             1.65531
             1.71543
             1.77555
             1.83567
             1.89579
             1.95591
             2.01603
             2.07615
             2.13627
             2.19639
             2.25651
             2.31663
             2.37675
             2.43687
             2.49699
             2.55711
             2.61723
             2.67735
             2.73747
             2.79759
             2.85771
             2.91783
             2.97795
             3.03807
             3.09819
             3.15831
             3.21843
             3.27855
             3.33867
             3.39879
             3.45891
             3.51903
             3.57915
             3.63927
             3.69939
             3.75952
             3.81964
             3.87976
             3.93988
             4.00000
</energy_values>
<orbital 
 index="                        1" 
 atom_index="                        1" 
 species="O" 
 position="   0.000000  -0.000286   0.000000" 
 n="                        2" 
 l="                        0" 
 m="                        0" 
 z="                        1" 
> 
<data>
   0.00000
   0.00000
   0.00000
   0.00000
   0.00000
   0.00000
   0.00000
   0.00000
   0.00000
   0.00000
   0.00001
   0.00008
   0.00044
   0.00202
   0.00777
   0.02498
   0.06710
   0.15057
   0.28220
   0.44180
   0.57772
   0.63100
   0.57567
   0.43867
   0.27921
   0.14844
   0.06592
   0.02445
   0.00758
   0.00196
   0.00042
   0.00008
   0.00001
   0.00000
   0.00000
   0.00000
   0.00000
   0.00000
   0.00000
   0.00000
   0.00000
   0.00000
   0.00000
   0.00000
   0.00000
   0.00000
   0.00000
   0.00000
   0.00000
   0.00000
   0.00000
   0.00000
   0.00000
   0.00000
   0.00000
   0.00000
   0.00000
   0.00000
   0.00000
   0.00000
   0.00000
   0.00000
   0.00000
   0.00000
   0.00000
   0.00000
   0.00000
   0.00000
   0.00000
   0.00000
   0.00000
   0.00000
   0.00000
   0.00000
   0.00000
   0.00000
   0.00000
   0.00000
   0.00000
   0.00000
   0.00000
   0.00000
   0.00000
   0.00000
   0.00000
   0.00000
   0.00000
   0.00000
   0.00000
   0.00000
   0.00000
   0.00000
   0.00000
   0.00000
   0.00000
   0.00000
   0.00000
   0.00000
   0.00000
   0.00000
   0.00000
   0.00000
   0.00000
   0.00000
   0.00000
   0.00000
   0.00000
   0.00000
   0.00000
   0.00000
   0.00000
   0.00000
   0.00000
   0.00000
   0.00000
   0.00000
   0.00000
   0.00000
   0.00000
   0.00000
   0.00000
   0.00000
   0.00000
   0.00000
   0.00000
   0.00000
   0.00000
   0.00000
   0.00000
   0.00000
   0.00000
   0.00000
   0.00000
   0.00000
   0.00000
   0.00000
   0.00000
   0.00000
   0.00000
   0.00000
   0.00000
   0.00000
   0.00000
   0.00000
   0.00000
   0.00000
   0.00000
   0.00000
   0.00000
   0.00000
   0.00000
   0.00000
   0.00000
   0.00000
   0.00000
   0.00000
   0.00000
   0.00000
   0.00000
   0.00000
   0.00000
   0.00000
   0.00000
   0.00000
   0.00000
   0.00000
   0.00000
   0.00000
   0.00000
   0.00000
   0.00000
   0.00000
   0.00000
   0.00000
   0.00000
   0.00000
   0.00000
   0.00000
   0.00000
   0.00000
   0.00000
   0.00000
   0.00000
   0.00000
   0.00000
   0.00000
   0.00000
   0.00000
   0.00000
   0.00000
   0.00000
   0.00000
   0.00000
   0.00000
   0.00000
   0.00000
   0.00000
   0.00000
   0.00000
   0.00000
   0.00000
   0.00000
   0.00000
   0.00000
   0.00000
   0.00000
   0.00000
   0.00000
   0.00000
   0.00000
   0.00000
   0.00000
   0.00000
   0.00000
   0.00000
   0.00000
   0.00000
   0.00000
   0.00000
   0.00000
   0.00000
   0.00000
   0.00000
   0.00000
   0.00000
   0.00000
   0.00000
   0.00000
   0.00000
   0.00000
   0.00000
   0.00000
   0.00000
   0.00000
   0.00000
   0.00000
   0.00000
   0.00000
   0.00000
   0.00000
   0.00000
   0.00000
   0.00000
   0.00000
   0.00000
   0.00000
   0.00000
   0.00000
   0.00000
   0.00000
   0.00000
   0.00000
   0.00000
   0.00000
   0.00000
   0.00000
   0.00000
   0.00000
   0.00000
   0.00000
   0.00000
   0.00000
   0.00000
   0.00000
   0.00000
   0.00000
   0.00000
   0.00000
   0.00000
   0.00000
   0.00000
   0.00000
   0.00000
   0.00000
   0.00000
   0.00000
   0.00000
   0.00001
   0.00004
   0.00021
   0.00101
   0.00400
   0.01323
   0.03655
   0.08439
   0.16272
   0.26209
   0.35259
   0.39621
   0.37188
   0.29154
   0.19091
   0.10442
   0.04771
   0.01821
   0.00580
   0.00154
   0.00034
   0.00006
   0.00001
   0.00000
   0.00000
   0.00000
   0.00000
   0.00000
   0.00000
   0.00000
   0.00000
   0.00000
   0.00000
   0.00000
   0.00000
   0.00000
   0.00000
   0.00000
   0.00000
   0.00000
  -0.00000
  -0.00000
  -0.00000
  -0.00000
  -0.00000
  -0.00000
  -0.00000
  -0.00000
  -0.00000
  -0.00000
  -0.00000
  -0.00000
  -0.00000
  -0.00000
  -0.00000
  -0.00000
  -0.00000
  -0.00000
  -0.00000
  -0.00000
  -0.00000
  -0.00000
  -0.00000
  -0.00000
  -0.00000
  -0.00000
   0.00000
   0.00000
   0.00000
   0.00000
   0.00000
   0.00000
   0.00000
   0.00000
   0.00000
   0.00000
   0.00000
   0.00000
   0.00000
   0.00000
   0.00000
   0.00000
   0.00000
   0.00000
   0.00000
   0.00000
   0.00000
   0.00000
   0.00000
   0.00000
   0.00000
   0.00000
   0.00000
   0.00000
   0.00000
   0.00000
   0.00000
   0.00000
   0.00000
   0.00000
   0.00000
   0.00000
   0.00000
   0.00000
   0.00000
   0.00000
   0.00000
   0.00000
   0.00000
   0.00000
   0.00000
   0.00000
   0.00000
   0.00000
   0.00000
   0.00000
   0.00000
   0.00000
   0.00000
   0.00000
   0.00000
   0.00000
   0.00000
   0.00000
   0.00000
   0.00000
   0.00000
   0.00000
   0.00000
   0.00000
   0.00000
   0.00000
   0.00000
   0.00000
   0.00000
   0.00000
   0.00000
   0.00000
   0.00000
   0.00000
   0.00000
   0.00000
   0.00000
   0.00000
   0.00000
   0.00000
   0.00000
   0.00000
   0.00000
   0.00000
   0.00000
   0.00000
   0.00000
   0.00000
   0.00000
   0.00000
   0.00000
   0.00000
   0.00000
   0.00000
   0.00000
   0.00000
   0.00000
   0.00000
   0.00000
   0.00000
   0.00000
   0.00000
   0.00000
   0.00000
   0.00000
   0.00000
   0.00000
   0.00000
   0.00001
   0.00005
   0.00025
   0.00100
   0.00339
   0.00958
   0.02262
   0.04460
   0.07345
   0.10103
   0.11608
   0.11140
   0.08930
   0.05979
   0.03344
   0.01562
   0.00609
   0.00199
   0.00054
   0.00012
   0.00002
   0.00000
   0.00000
   0.00000
   0.00000
   0.00000
   0.00000
   0.00000
   0.00000
   0.00000
   0.00000
   0.00000
   0.00000
   0.00000
   0.00000
   0.00000
   0.00000
   0.00000
  -0.00000
  -0.00000
  -0.00000
  -0.00000
  -0.00000
  -0.00000
  -0.00000
  -0.00000
  -0.00000
  -0.00000
  -0.00000
</data>
</orbital>
<orbital 
 index="                        2" 
 atom_index="                        1" 
 species="O" 
 position="   0.000000  -0.000286   0.000000" 
 n="                        2" 
 l="                        0" 
 m="                        0" 
 z="                        2" 
> 
<data>
   0.00000
   0.00000
   0.00000
   0.00000
   0.00000
   0.00000
   0.00000
   0.00000
   0.00000
   0.00000
   0.00002
   0.00012
   0.00066
   0.00302
   0.01163
   0.03740
   0.10048
   0.22546
   0.42258
   0.66156
   0.86508
   0.94487
   0.86202
   0.65688
   0.41810
   0.22228
   0.09871
   0.03661
   0.01134
   0.00294
   0.00063
   0.00011
   0.00002
   0.00000
   0.00000
   0.00000
   0.00000
   0.00000
   0.00000
   0.00000
   0.00000
   0.00000
   0.00000
   0.00000
   0.00000
   0.00000
   0.00000
   0.00000
   0.00000
   0.00000
   0.00000
   0.00000
   0.00000
   0.00000
   0.00000
   0.00000
   0.00000
   0.00000
   0.00000
   0.00000
   0.00000
   0.00000
   0.00000
   0.00000
   0.00000
   0.00000
   0.00000
   0.00000
   0.00000
   0.00000
   0.00000
   0.00000
   0.00000
   0.00000
   0.00000
   0.00000
   0.00000
   0.00000
   0.00000
   0.00000
   0.00000
   0.00000
   0.00000
   0.00000
   0.00000
   0.00000
   0.00000
   0.00000
   0.00000
   0.00000
   0.00000
   0.00000
   0.00000
   0.00000
   0.00000
   0.00000
   0.00000
   0.00000
   0.00000
   0.00000
   0.00000
   0.00000
   0.00000
   0.00000
   0.00000
   0.00000
   0.00000
   0.00000
   0.00000
   0.00000
   0.00000
   0.00000
   0.00000
   0.00000
   0.00000
   0.00000
   0.00000
   0.00000
   0.00000
   0.00000
   0.00000
   0.00000
   0.00000
   0.00000
   0.00000
   0.00000
   0.00000
   0.00000
   0.00000
   0.00000
   0.00000
   0.00000
   0.00000
   0.00000
   0.00000
   0.00000
   0.00000
   0.00000
   0.00000
   0.00000
   0.00000
   0.00000
   0.00000
   0.00000
   0.00000
   0.00000
   0.00000
   0.00000
   0.00000
   0.00000
   0.00000
   0.00000
   0.00000
   0.00000
   0.00000
   0.00000
   0.00000
   0.00000
   0.00000
   0.00000
   0.00000
   0.00000
   0.00000
   0.00000
   0.00000
   0.00000
   0.00000
   0.00000
   0.00000
   0.00000
   0.00000
   0.00000
   0.00000
   0.00000
   0.00000
   0.00000
   0.00000
   0.00000
   0.00000
   0.00000
   0.00000
   0.00000
   0.00000
   0.00000
   0.00000
   0.00000
   0.00000
   0.00000
   0.00000
   0.00000
   0.00000
   0.00000
   0.00000
   0.00000
   0.00000
   0.00000
   0.00000
   0.00000
   0.00000
   0.00000
   0.00000
   0.00000
   0.00000
   0.00000
   0.00000
   0.00000
   0.00000
   0.00000
   0.00000
  -0.00000
  -0.00000
  -0.00000
  -0.00000
  -0.00000
  -0.00000
  -0.00000
  -0.00000
  -0.00000
  -0.00000
  -0.00000
  -0.00000
  -0.00000
  -0.00000
  -0.00000
  -0.00000
  -0.00000
  -0.00000
  -0.00000
  -0.00000
  -0.00000
  -0.00000
  -0.00000
  -0.00000
  -0.00000
  -0.00000
   0.00000
   0.00000
   0.00000
   0.00000
   0.00000
   0.00000
   0.00000
   0.00000
   0.00000
   0.00000
   0.00000
   0.00000
   0.00000
   0.00000
   0.00000
   0.00000
   0.00000
   0.00000
   0.00000
   0.00000
   0.00000
   0.00000
   0.00000
   0.00000
   0.00000
   0.00000
   0.00000
   0.00000
   0.00000
   0.00000
   0.00000
   0.00000
   0.00000
   0.00000
   0.00000
   0.00000
   0.00000
   0.00000
   0.00000
   0.00000
   0.00000
  -0.00000
  -0.00000
  -0.00001
  -0.00003
  -0.00015
  -0.00061
  -0.00202
  -0.00557
  -0.01286
  -0.02480
  -0.03994
  -0.05373
  -0.06038
  -0.05667
  -0.04443
  -0.02909
  -0.01591
  -0.00727
  -0.00277
  -0.00088
  -0.00024
  -0.00005
  -0.00001
  -0.00000
  -0.00000
  -0.00000
   0.00000
   0.00000
   0.00000
   0.00000
   0.00000
   0.00000
   0.00000
   0.00000
   0.00000
   0.00000
   0.00000
   0.00000
   0.00000
   0.00000
   0.00000
   0.00000
   0.00000
   0.00000
   0.00000
   0.00000
   0.00000
   0.00000
   0.00000
   0.00000
   0.00000
   0.00000
   0.00000
   0.00000
   0.00000
   0.00000
   0.00000
   0.00000
   0.00000
   0.00000
   0.00000
   0.00000
   0.00000
   0.00000
   0.00000
   0.00000
   0.00000
   0.00000
   0.00000
   0.00000
   0.00000
   0.00000
   0.00000
   0.00000
   0.00000
   0.00000
   0.00000
   0.00000
   0.00000
   0.00000
   0.00000
   0.00000
   0.00000
   0.00000
   0.00000
   0.00000
   0.00000
   0.00000
   0.00000
   0.00000
   0.00000
   0.00000
   0.00000
   0.00000
   0.00000
   0.00000
   0.00000
   0.00000
   0.00000
   0.00000
   0.00000
   0.00000
   0.00000
   0.00000
   0.00000
   0.00000
   0.00000
   0.00000
   0.00000
   0.00000
   0.00000
   0.00000
   0.00000
   0.00000
   0.00000
   0.00000
   0.00000
   0.00000
   0.00000
   0.00000
   0.00000
   0.00000
   0.00000
   0.00000
   0.00000
   0.00000
   0.00000
   0.00000
   0.00000
   0.00000
   0.00000
   0.00000
   0.00000
   0.00000
   0.00000
   0.00000
   0.00000
   0.00000
   0.00000
   0.00000
   0.00000
   0.00000
   0.00000
   0.00000
   0.00000
   0.00000
   0.00000
   0.00000
   0.00000
   0.00000
   0.00000
   0.00000
   0.00000
   0.00000
   0.00000
   0.00000
   0.00000
   0.00000
   0.00000
   0.00000
   0.00000
   0.00000
   0.00000
   0.00000
   0.00000
   0.00000
   0.00000
   0.00000
   0.00000
   0.00000
   0.00000
   0.00000
   0.00000
   0.00000
   0.00000
   0.00000
   0.00001
   0.00003
   0.00013
   0.00042
   0.00120
   0.00283
   0.00559
   0.00920
   0.01265
   0.01454
   0.01395
   0.01118
   0.00749
   0.00419
   0.00196
   0.00076
   0.00025
   0.00007
   0.00002
   0.00000
   0.00000
   0.00000
   0.00000
   0.00000
   0.00000
   0.00000
   0.00000
   0.00000
   0.00000
   0.00000
   0.00000
   0.00000
   0.00000
   0.00000
   0.00000
   0.00000
   0.00000
  -0.00000
  -0.00000
  -0.00000
  -0.00000
  -0.00000
  -0.00000
  -0.00000
  -0.00000
  -0.00000
  -0.00000
  -0.00000
</data>
</orbital>
<orbital 
 index="                        3" 
 atom_index="                        1" 
 species="O" 
 position="   0.000000  -0.000286   0.000000" 
 n="                        2" 
 l="                        1" 
 m="                       -1" 
 z="                        1" 
> 
<data>
   0.00000
   0.00000
   0.00000
   0.00000
   0.00000
   0.00000
   0.00000
   0.00000
   0.00000
  -0.00000
  -0.00000
  -0.00001
  -0.00004
  -0.00016
  -0.00062
  -0.00201
  -0.00539
  -0.01210
  -0.02268
  -0.03550
  -0.04642
  -0.05070
  -0.04626
  -0.03525
  -0.02244
  -0.01193
  -0.00530
  -0.00196
  -0.00061
  -0.00016
  -0.00003
  -0.00001
  -0.00000
  -0.00000
   0.00000
   0.00000
   0.00000
   0.00000
   0.00000
   0.00000
   0.00000
   0.00000
   0.00000
   0.00000
   0.00000
   0.00000
   0.00000
   0.00000
   0.00000
   0.00000
   0.00000
   0.00000
   0.00000
   0.00000
   0.00000
   0.00000
   0.00000
   0.00000
   0.00000
   0.00000
   0.00000
   0.00000
   0.00000
   0.00000
   0.00000
   0.00000
   0.00000
   0.00000
   0.00000
   0.00000
   0.00000
   0.00000
   0.00000
   0.00000
   0.00000
   0.00000
   0.00000
   0.00000
   0.00000
   0.00000
   0.00000
   0.00000
   0.00000
   0.00000
   0.00000
   0.00000
   0.00000
   0.00000
   0.00000
   0.00000
   0.00000
   0.00000
   0.00000
   0.00000
   0.00000
   0.00000
   0.00000
   0.00000
   0.00000
   0.00000
   0.00000
   0.00000
   0.00000
   0.00000
   0.00000
   0.00000
   0.00000
   0.00000
   0.00000
   0.00000
   0.00000
   0.00000
   0.00000
   0.00000
   0.00000
   0.00000
   0.00000
   0.00000
   0.00000
   0.00000
   0.00000
   0.00000
   0.00000
   0.00000
   0.00000
   0.00000
   0.00000
   0.00000
   0.00000
   0.00000
   0.00000
   0.00000
   0.00000
   0.00000
   0.00000
   0.00000
   0.00000
   0.00000
   0.00000
   0.00000
   0.00000
   0.00000
   0.00000
   0.00000
   0.00000
   0.00000
   0.00000
   0.00000
   0.00000
   0.00000
   0.00000
   0.00000
   0.00000
   0.00000
   0.00000
   0.00000
   0.00000
   0.00000
   0.00000
   0.00000
   0.00000
   0.00000
   0.00000
   0.00000
   0.00000
   0.00000
   0.00000
   0.00000
   0.00000
   0.00000
   0.00000
   0.00000
   0.00000
   0.00000
   0.00000
   0.00000
   0.00000
   0.00000
   0.00000
   0.00000
   0.00000
   0.00000
   0.00000
   0.00000
   0.00000
   0.00000
   0.00000
   0.00000
   0.00000
   0.00000
   0.00000
   0.00000
   0.00000
   0.00000
   0.00000
   0.00000
   0.00000
   0.00000
   0.00000
   0.00000
   0.00000
   0.00000
   0.00000
   0.00000
   0.00000
   0.00000
   0.00000
   0.00000
   0.00000
   0.00000
   0.00000
   0.00000
   0.00000
   0.00000
   0.00000
   0.00000
   0.00000
   0.00000
   0.00000
   0.00000
   0.00000
   0.00000
   0.00000
   0.00000
   0.00000
   0.00000
   0.00000
   0.00000
   0.00000
   0.00000
   0.00000
   0.00000
   0.00000
   0.00000
   0.00000
   0.00000
   0.00000
   0.00000
   0.00000
   0.00000
   0.00000
   0.00000
   0.00000
   0.00000
   0.00000
   0.00000
   0.00000
   0.00000
   0.00000
   0.00000
   0.00000
   0.00000
   0.00000
   0.00000
   0.00000
   0.00000
   0.00000
   0.00000
   0.00000
   0.00000
   0.00000
   0.00000
   0.00000
   0.00000
   0.00000
   0.00000
   0.00000
   0.00000
   0.00000
   0.00000
   0.00000
   0.00000
   0.00000
   0.00000
   0.00000
   0.00000
   0.00000
   0.00003
   0.00018
   0.00101
   0.00480
   0.01903
   0.06297
   0.17405
   0.40180
   0.77478
   1.24788
   1.67880
   1.88647
   1.77063
   1.38814
   0.90900
   0.49719
   0.22715
   0.08668
   0.02763
   0.00736
   0.00164
   0.00030
   0.00005
   0.00001
   0.00000
   0.00000
   0.00000
   0.00000
   0.00000
   0.00000
   0.00000
   0.00000
   0.00000
   0.00000
   0.00000
   0.00000
   0.00000
   0.00000
   0.00000
   0.00000
   0.00000
   0.00000
   0.00000
   0.00000
   0.00000
   0.00000
   0.00000
   0.00000
   0.00000
   0.00000
   0.00000
   0.00000
   0.00000
   0.00000
   0.00000
   0.00000
   0.00000
   0.00000
   0.00000
   0.00000
   0.00000
   0.00000
   0.00000
   0.00000
   0.00000
   0.00000
   0.00000
   0.00000
   0.00000
   0.00000
   0.00000
   0.00000
   0.00000
   0.00000
   0.00000
   0.00000
   0.00000
   0.00000
   0.00000
   0.00000
   0.00000
   0.00000
   0.00000
   0.00000
   0.00000
   0.00000
   0.00000
   0.00000
   0.00000
   0.00000
   0.00000
   0.00000
   0.00000
   0.00000
   0.00000
   0.00000
   0.00000
   0.00000
   0.00000
   0.00000
   0.00000
   0.00000
   0.00000
   0.00000
   0.00000
   0.00000
   0.00000
   0.00000
   0.00000
   0.00000
   0.00000
   0.00000
   0.00000
   0.00000
   0.00000
   0.00000
   0.00000
   0.00000
   0.00000
   0.00000
   0.00000
   0.00000
   0.00000
   0.00000
   0.00000
   0.00000
   0.00000
   0.00000
   0.00000
   0.00000
   0.00000
   0.00000
   0.00000
   0.00000
   0.00000
   0.00000
   0.00000
   0.00000
   0.00000
   0.00000
   0.00000
   0.00000
   0.00000
   0.00000
   0.00000
   0.00000
   0.00000
   0.00000
   0.00000
   0.00000
   0.00000
   0.00000
   0.00000
   0.00000
   0.00000
   0.00000
   0.00000
   0.00000
   0.00000
   0.00000
   0.00000
   0.00000
   0.00000
   0.00000
   0.00000
   0.00000
   0.00000
   0.00000
   0.00000
   0.00000
   0.00000
   0.00000
   0.00000
   0.00000
   0.00001
   0.00006
   0.00030
   0.00121
   0.00410
   0.01159
   0.02735
   0.05392
   0.08880
   0.12214
   0.14033
   0.13467
   0.10795
   0.07228
   0.04042
   0.01888
   0.00737
   0.00240
   0.00065
   0.00015
   0.00003
   0.00000
   0.00000
   0.00000
   0.00000
   0.00000
   0.00000
   0.00000
   0.00000
   0.00000
   0.00000
   0.00000
   0.00000
   0.00000
   0.00000
   0.00000
   0.00000
   0.00000
   0.00000
   0.00000
   0.00000
   0.00000
   0.00000
   0.00000
   0.00000
   0.00000
   0.00000
   0.00000
   0.00000
</data>
</orbital>
<orbital 
 index="                        4" 
 atom_index="                        1" 
 species="O" 
 position="   0.000000  -0.000286   0.000000" 
 n="                        2" 
 l="                        1" 
 m="                        0" 
 z="                        1" 
> 
<data>
   0.00000
   0.00000
   0.00000
   0.00000
   0.00000
   0.00000
   0.00000
   0.00000
   0.00000
  -0.00000
  -0.00000
  -0.00000
  -0.00000
  -0.00000
  -0.00000
  -0.00000
  -0.00000
  -0.00000
  -0.00000
  -0.00000
  -0.00000
  -0.00000
  -0.00000
  -0.00000
  -0.00000
  -0.00000
  -0.00000
  -0.00000
  -0.00000
  -0.00000
  -0.00000
  -0.00000
  -0.00000
  -0.00000
   0.00000
   0.00000
   0.00000
   0.00000
   0.00000
   0.00000
   0.00000
   0.00000
   0.00000
   0.00000
   0.00000
   0.00000
   0.00000
   0.00000
   0.00000
   0.00000
   0.00000
   0.00000
   0.00000
   0.00000
   0.00000
   0.00000
   0.00000
   0.00000
   0.00000
   0.00000
   0.00000
   0.00000
   0.00000
   0.00000
   0.00000
   0.00000
   0.00000
   0.00000
   0.00000
   0.00000
   0.00000
   0.00000
   0.00000
   0.00000
   0.00000
   0.00000
   0.00000
   0.00000
   0.00000
   0.00000
   0.00000
   0.00000
   0.00000
   0.00000
   0.00000
   0.00000
   0.00000
   0.00000
   0.00000
   0.00000
   0.00000
   0.00000
   0.00000
   0.00000
   0.00000
   0.00000
   0.00000
   0.00000
   0.00000
   0.00000
   0.00000
   0.00000
   0.00000
   0.00000
   0.00000
   0.00000
   0.00000
   0.00000
   0.00000
   0.00000
   0.00000
   0.00000
   0.00000
   0.00000
   0.00000
   0.00000
   0.00000
   0.00000
   0.00000
   0.00000
   0.00000
   0.00000
   0.00000
   0.00000
   0.00000
   0.00000
   0.00000
   0.00000
   0.00000
   0.00000
   0.00000
   0.00000
   0.00000
   0.00000
   0.00000
   0.00000
   0.00000
   0.00000
   0.00000
   0.00000
   0.00000
   0.00000
   0.00000
   0.00000
   0.00000
   0.00000
   0.00000
   0.00000
   0.00000
   0.00000
   0.00000
   0.00000
   0.00000
   0.00000