
#FDF: Opened INPUT_TMP.91579      for input. Unit: 12

fdf-debug              0     # Default value
SystemName     TiO2                                                                                                                                
SystemLabel     tio2                                                                                                                                
XML.Write              T     # Default value
Write.XML              T     # Default value
XML.AbortOnErrors              F     # Default value
XML.AbortOnWarnings              F     # Default value
alloc_report_level              0     # Default value
xc.functional     GGA                                                                                                                                 
xc.authors     HSE06                                                                                                                               
MM.Cutoff          30.00000000     Bohr     # Default value
MM.UnitsEnergy     eV     # Default value
MM.UnitsDistance     Ang     # Default value
WriteIonPlotFiles              F     # Default value
Atom.Debug.KB.Generation              F     # Default value
user-basis              F     # Default value
user-basis-netcdf              F     # Default value
ReparametrizePseudos              F     # Default value
Restricted.Radial.Grid              T     # Default value
Rmax.Radial.Grid          0.000000000         # Default value
PAO.BasisSize     standard            # Default value
PAO.BasisType     split          # Default value
PAO.SoftDefault              F     # Default value
PAO.SoftInnerRadius         0.9000000000         # Default value
PAO.SoftPotential          40.00000000         # Default value
PAO.SplitNorm         0.1500000000         # Default value
PAO.SplitNormH         -1.000000000         # Default value
Number_of_species                        2

%block ChemicalSpeciesLabel                                                    
  1  22   Ti                                                                   
  2  8  O                                                                      
%endblock ChemicalSpeciesLabel                                                 
 

%block PAO.Basis                                                               
Ti    5      1.9243229                                                         
 n=3    0    1   E     89.2544944       2.4608930                              
   2.8872099                                                                   
   1.00000000000000                                                            
 n=4    0    2   E     97.7980549       4.71452135                             
   4.8057173            4.6151393                                              
   1.00000000000000        1.00000000000000                                    
 n=3    1    1   E     73.5285737       2.7406764                              
   3.1432229                                                                   
   1.00000000000000                                                            
 n=4    1    1   E     5.4801522       2.0394443                               
   3.0013932                                                                   
   1.00000000000000                                                            
 n=3    2    2   E     28.9714917       3.4223389                              
    4.0842297            2.6826474                                             
   1.00000000000000        1.00000000000000                                    
O     3     -.2126369                                                          
 n=2    0    2   E      27.7694723       3.5781202                             
   4.3372307            2.6101394                                              
   1.00000000000000        1.00000000000000                                    
 n=2    1    2   E      25.8458591       4.1751665                             
   4.8459167            2.8438221                                              
   1.00000000000000        1.00000000000000                                    
 n=3    2    1   E      2.4082762       1.3604859                              
   3.3849443                                                                   
   1.00000000000000                                                            
%endblock PAO.Basis                                                            
 

%block PS.lmax                                                                 
   Ti    3                                                                     
    O    3                                                                     
%endblock PS.lmax                                                              
 
FilterCutoff          0.000000000     Ry     # Default value
FilterTol          0.000000000     Ry     # Default value
KB.Rmax          6.000000000     Bohr     # Default value
PAO.EnergyShift         0.2000000000E-01 Ry     # Default value
PAO.SplitTailNorm              F     # Default value
PAO.FixSplitTable              F     # Default value
PAO.NewSplitCode              F     # Default value
PAO.Filter              F     # Default value
PAO.Filter              F     # Default value
PAO.Filter              F     # Default value
PAO.Filter              F     # Default value
PAO.Filter              F     # Default value
PAO.Filter              F     # Default value
PAO.Filter              F     # Default value
PAO.OldStylePolorbs              T     # Default value
PAO.SplitTailNorm              F     # Default value
PAO.FixSplitTable              F     # Default value
PAO.NewSplitCode              F     # Default value
Vna.Filter              F     # Default value
FilterCutoff          0.000000000     Ry     # Default value
FilterTol          0.000000000     Ry     # Default value
KB.Rmax          6.000000000     Bohr     # Default value
PAO.EnergyShift         0.2000000000E-01 Ry     # Default value
PAO.SplitTailNorm              F     # Default value
PAO.FixSplitTable              F     # Default value
PAO.NewSplitCode              F     # Default value
PAO.Filter              F     # Default value
PAO.Filter              F     # Default value
PAO.Filter              F     # Default value
PAO.Filter              F     # Default value
PAO.Filter              F     # Default value
PAO.OldStylePolorbs              T     # Default value
PAO.SplitTailNorm              F     # Default value
PAO.FixSplitTable              F     # Default value
PAO.NewSplitCode              F     # Default value
Vna.Filter              F     # Default value
PAO.BasisType     split          # Default value
HFX.DumpFitData              T     # Default value
HFX.FitDataPoints            500     # Default value
HFX.MinimumNumberGaussians                        3
HFX.MaximumNumberGaussians                        5
HFX.ToleranceFit         0.1000000000E-02     # Default value
HFX.SeparationExponents          1.400000000         # Default value
HFX.GaussianEPS         0.1000000000E-04

%block NAO2GTO                                                                 
Ti 7                                                                           
3 0 1 5                                                                        
5.06304789829199            -35.6717924214391                                  
3.31373807719686            76.8633303931056                                   
0.670406644152027           1.72872108681444                                   
3.71496347430559            -154.24549388317                                   
4.41598554030901            112.587194855657                                   
4 0 1 6                                                                        
0.441202974268689            -150.071379747411                                 
5.27690582705904             103.720408211751                                  
0.524649781222156            53.3428565589496                                  
0.370573053550749            175.428804717205                                  
0.326156097278806            -77.4652778840466                                 
5.26166516355046             -104.224964847292                                 
4 0 2 5                                                                        
0.694500200728577            43.2802558385826                                  
0.482936642641355            273.643267496283                                  
0.554233890979043            -194.211444396034                                 
0.431394162021397            -121.065711561792                                 
3.10435960723413             -0.549188284035539                                
3 1 1 3                                                                        
0.632915630171411           1.03009857098527                                   
2.11444558310662            7.79466290595463                                   
2.46174717371221            -5.4840915250327                                   
4 1 1 5                                                                        
2.44863530566875             10.2838086668641                                  
0.554644500179955            4.83590130683068                                  
0.285750541769038            13.759214643676                                   
2.74065831252238             -7.62308347297908                                 
0.31190182456528             -17.9366481463711                                 
3 2 1 4                                                                        
1.36870631350254             1.98082982444185                                  
8.01937397877435             -1.39545231841736                                 
0.409711034427782            0.299331504076561                                 
4.10675115902018             8.26162660660348                                  
3 2 2 4                                                                        
5.50433570405124            23.1671423976058                                   
0.951875520264245           1.66355875198474                                   
2.70880774765734            4.15011215011257                                   
6.13700886686494            -17.6813717082228                                  
O  5                                                                           
2 0 1 5                                                                        
3.41980229494729             38.7112071561663                                  
0.277547511404403            0.498414181114465                                 
0.810602030035813            1.1046965794338                                   
3.99862230308868             37.786767450746                                   
3.70364631037674             -76.8500050844386                                 
2 0 2 5                                                                        
3.25363978744146             34.3761166857969                                  
4.02608819522255             32.1247330919085                                  
3.6300647458624              -66.8119177811748                                 
0.490954126840092            -11.7157033807992                                 
0.51254347849647             13.4742642380047                                  
2 1 1 4                                                                        
1.0970477510991              1.53037064233019                                  
0.268550033357923            0.294903399746936                                 
9.50887903084867             -0.530849047711627                                
4.00768745526609             4.01385819243416                                  
2 1 2 4                                                                        
6.08326226721387            -144.645028465317                                  
2.29021821038278            2.18740789111945                                   
6.02843270909986            147.665876649304                                   
0.772755176743678           1.44934972343959                                   
3 2 1 4                                                                        
2.32296489876456            0.634437511263633                                  
0.468018655042551           -14.3421215097284                                  
0.464760624115432           14.8356099342484                                   
18.6950379551616            -0.0135576634197983                                
%endblock NAO2GTO                                                              
 
HFX.UseFittedNAOs              T
Atom-Setup-Only              F     # Default value
UseStructFile              F     # Default value
MD.UseStructFile              F     # Default value
LatticeConstant          1.889726878           Bohr
# Above item originally: LatticeConstant          1.000000000     Ang       

 %block LatticeVectors                                                         
      13.7820000000000000      0.0000000000000000      0.0000000000000000      
       0.0000000000000000     13.7820000000000000      0.0000000000000000      
       0.0000000000000000      0.0000000000000000     11.8360000000000003      
 %endblock LatticeVectors                                                      
 

 %block LatticeVectors                                                         
      13.7820000000000000      0.0000000000000000      0.0000000000000000      
       0.0000000000000000     13.7820000000000000      0.0000000000000000      
       0.0000000000000000      0.0000000000000000     11.8360000000000003      
 %endblock LatticeVectors                                                      
 
AtomicCoordinatesFormat     Fractional                                                                                                                          
NumberOfAtoms                      216
ZM.UnitsLength     Bohr           # Default value
ZM.UnitsAngle     rad            # Default value
ZM.ForceTolLength         0.1555740000E-02 Ry/Bohr     # Default value
ZM.ForceTolAngle         0.3565490000E-02 Ry/rad     # Default value
ZM.MaxDisplLength         0.2000000000     Bohr     # Default value
ZM.MaxDisplAngle         0.3000000000E-02 rad     # Default value
ZM.CalcAllForces              F     # Default value

 %block AtomicCoordinatesAndAtomicSpecies                                      
       0.0000014120000000      0.0000012220000000     -0.0000302770000000     1
       0.0000003260000000      0.0000002270000000      0.2498983440000000     1
      -0.0000002460000000     -0.0000006350000000      0.5000690440000000     1
       0.0000004170000000      0.0000005240000000      0.7500727800000000     1
      -0.0000927150000000      0.3333675580000000     -0.0000125230000000     1
      -0.0000740100000000      0.3333184250000000      0.2499659770000000     1
      -0.0000699450000000      0.3333092280000000      0.5000340500000000     1
      -0.0000900590000000      0.3333715920000000      0.7500144340000000     1
       0.0000925000000000      0.6666321860000000     -0.0000126440000000     1
       0.0000737380000000      0.6666813810000000      0.2499657760000000     1
       0.0000699420000000      0.6666905300000000      0.5000341000000000     1
       0.0000898140000000      0.6666278329999999      0.7500145060000000     1
       0.3333675290000000     -0.0000929860000000     -0.0000128750000000     1
       0.3333184840000000     -0.0000741280000000      0.2499659140000000     1
       0.3333093580000000     -0.0000700140000000      0.5000338840000000     1
       0.3333716970000000     -0.0000898440000000      0.7500140380000000     1
       0.3346043060000000      0.3346040690000000      0.0001098030000000     1
       0.3336477400000000      0.3336477520000000      0.2500172160000000     1
       0.3332134160000000      0.3332134160000000      0.4999611560000000     1
       0.3345784260000000      0.3345782820000000      0.7497976040000000     1
       0.3333331790000000      0.6666668450000000      0.0000581140000000     1
       0.3332226730000000      0.6667770240000001      0.2501656180000000     1
       0.3330276810000000      0.6669721680000000      0.4997712880000000     1
       0.3335354030000000      0.6664646510000000      0.7498290110000000     1
       0.6666323540000000      0.0000924780000000     -0.0000125510000000     1
       0.6666814900000000      0.0000737210000000      0.2499658490000000     1
       0.6666906310000000      0.0000699490000000      0.5000340410000000     1
       0.6666280980000000      0.0000896680000000      0.7500143540000000     1
       0.6666670400000000      0.3333327760000000      0.0000578480000000     1
       0.6667774829999999      0.3332224260000000      0.2501653740000000     1
       0.6669727090000001      0.3330272650000000      0.4997701130000000     1
       0.6664597289999999      0.3335402940000000      0.7498223180000000     1
       0.6653962020000000      0.6653960840000001      0.0001101020000000     1
       0.6663543900000000      0.6663543210000000      0.2500164110000000     1
       0.6667865039999999      0.6667864520000000      0.4999610720000000     1
       0.6654213020000000      0.6654212060000000      0.7497979740000000     1
       0.1668861860000000      0.1668857400000000      0.1247752100000000     1
       0.1664484970000000      0.1664484790000000      0.3748682680000000     1
       0.1667222140000000      0.1667221730000000      0.6253166010000000     1
       0.1671775940000000      0.1671775090000000      0.8750466880000000     1
       0.1667098900000000      0.4997593490000000      0.1249735230000000     1
       0.1666031640000000      0.4999141830000000      0.3749998710000000     1
       0.1667176690000000      0.4997775540000000      0.6250170330000000     1
       0.1666984020000000      0.4997554230000000      0.8749957850000000     1
       0.1666525830000000      0.8333470260000000      0.1249816250000000     1
       0.1664963440000000      0.8335036050000000      0.3749952990000000     1
       0.1666319470000000      0.8333679500000000      0.6250367910000000     1
       0.1667098610000000      0.8332899810000000      0.8749960470000000     1
       0.4997595250000000      0.1667097750000000      0.1249735780000000     1
       0.4999140070000000      0.1666031220000000      0.3749997540000000     1
       0.4997738870000000      0.1667213460000000      0.6250174010000000     1
       0.4997555310000000      0.1666980930000000      0.8749960879999999     1
       0.5000001710000000      0.5000002830000000      0.1282759180000000     1
       0.5000000190000000      0.5000001800000000      0.3743688630000000     1
       0.4999995440000000      0.5000003370000000      0.6186832680000000     1
       0.4999999540000000      0.4999999490000000      0.8736556080000000     1
       0.5002404580000001      0.8332899850000000      0.1249736570000000     1
       0.5000858860000000      0.8333965400000000      0.3749998010000000     1
       0.5002222120000001      0.8332823350000000      0.6250170010000000     1
       0.5002446000000000      0.8333015860000000      0.8749957720000000     1
       0.8333472930000000      0.1666524900000000      0.1249814170000000     1
       0.8335038720000000      0.1664960440000000      0.3749953910000000     1
       0.8333679850000000      0.1666318640000000      0.6250370100000000     1
       0.8332891970000000      0.1667106190000000      0.8749960180000000     1
       0.8332899960000000      0.5002403300000000      0.1249734930000000     1
       0.8333965679999999      0.5000858710000000      0.3749996760000000     1
       0.8332823920000000      0.5002221620000000      0.6250171060000000     1
       0.8333016870000000      0.5002442350000000      0.8749959750000000     1
       0.8331185660000000      0.8331184160000000      0.1247642040000000     1
       0.8335513190000000      0.8335510870000000      0.3748660930000000     1
       0.8332779500000000      0.8332773440000000      0.6253149410000000     1
       0.8328207810000000      0.8328206110000000      0.8750440140000000     1
       0.1004734340000000      0.1004735080000000     -0.0001362050000000     2
       0.1003167390000000      0.1003167000000000      0.2497256210000000     2
       0.1003100810000000      0.1003100950000000      0.5002205690000000     2
       0.1004550860000000      0.1004551100000000      0.7501384320000000     2
       0.1001713230000000      0.4341328880000000     -0.0000627160000000     2
       0.1002823800000000      0.4340494450000000      0.2500270570000000     2
       0.1003106300000000      0.4340255570000000      0.4999589260000000     2
       0.1002092580000000      0.4341059210000000      0.7500233860000000     2
       0.1006776150000000      0.7673395669999999     -0.0000147960000000     2
       0.1006351540000000      0.7673749040000000      0.2499967340000000     2
       0.1006610140000000      0.7673493640000000      0.5000038550000000     2
       0.1006383980000000      0.7673716110000000      0.7500061660000000     2
       0.4341327120000000      0.1001712960000000     -0.0000627780000000     2
       0.4340493460000000      0.1002825280000000      0.2500271490000000     2
       0.4340256040000000      0.1003107440000000      0.4999589890000000     2
       0.4341056800000000      0.1002091350000000      0.7500234190000000     2
       0.4338868900000000      0.4338869320000000     -0.0014541170000000     2
       0.4315656410000000      0.4315656400000000      0.2444358920000000     2
       0.4313387770000000      0.4313386310000000      0.5037939900000000     2
       0.4337391650000000      0.4337391930000000      0.7500769200000000     2
       0.4339144470000000      0.7676615160000000     -0.0000447150000000     2
       0.4339389950000000      0.7677328879999999      0.2499074180000000     2
       0.4338726680000000      0.7677659360000000      0.5000684830000000     2
       0.4340086200000000      0.7675457860000000      0.7499817580000000     2
       0.7673395380000000      0.1006775650000000     -0.0000146390000000     2
       0.7673748760000000      0.1006351260000000      0.2499968440000000     2
       0.7673493410000000      0.1006611610000000      0.5000039270000000     2
       0.7673716210000000      0.1006384530000000      0.7500060510000000     2
       0.7676615040000000      0.4339147340000000     -0.0000447170000000     2
       0.7677328740000000      0.4339390820000000      0.2499075630000000     2
       0.7677656520000000      0.4338725640000000      0.5000684940000000     2
       0.7675456520000000      0.4340087300000000      0.7499815080000000     2
       0.7675128959999999      0.7675129570000000     -0.0000548190000000     2
       0.7682771309999999      0.7682771269999999      0.2500109510000000     2
       0.7683397840000000      0.7683398100000000      0.4999797700000000     2
       0.7675431069999999      0.7675431780000000      0.7499791179999999     2
       0.2324874100000000      0.2324874790000000     -0.0000548550000000     2
       0.2317233520000000      0.2317233820000000      0.2500118830000000     2
       0.2316603160000000      0.2316603010000000      0.4999797750000000     2
       0.2324564290000000      0.2324565830000000      0.7499796150000000     2
       0.2323383790000000      0.5660856380000000     -0.0000447330000000     2
       0.2322670080000000      0.5660611580000000      0.2499075940000000     2
       0.2322339180000000      0.5661273790000000      0.5000685780000000     2
       0.2324540570000000      0.5659914420000000      0.7499815530000000     2
       0.2326605980000000      0.8993223840000000     -0.0000146220000000     2
       0.2326251480000000      0.8993647240000000      0.2499965060000000     2
       0.2326507770000000      0.8993386090000000      0.5000040460000000     2
       0.2326284730000000      0.8993616980000000      0.7500061280000000     2
       0.5660853620000000      0.2323383950000000     -0.0000448230000000     2
       0.5660610370000000      0.2322670900000000      0.2499074660000000     2
       0.5661274790000000      0.2322341550000000      0.5000685030000001     2
       0.5659914240000000      0.2324542850000000      0.7499814020000000     2
       0.5661129040000000      0.5661129560000000     -0.0014543390000000     2
       0.5684349660000000      0.5684348750000000      0.2444358140000000     2
       0.5686613180000000      0.5686611750000000      0.5037939620000000     2
       0.5662608900000000      0.5662608700000000      0.7500769920000000     2
       0.5658670770000001      0.8998286220000000     -0.0000627120000000     2
       0.5659505950000000      0.8997175460000000      0.2500270640000000     2
       0.5659744650000000      0.8996893600000000      0.4999589150000000     2
       0.5658943400000001      0.8997907340000000      0.7500234050000000     2
       0.8993225250000000      0.2326605860000000     -0.0000145040000000     2
       0.8993646560000000      0.2326252530000000      0.2499966920000000     2
       0.8993385970000000      0.2326507520000000      0.5000040740000000     2
       0.8993617110000000      0.2326283360000000      0.7500060430000000     2
       0.8998286960000000      0.5658670870000000     -0.0000628060000000     2
       0.8997175220000000      0.5659506820000000      0.2500270810000000     2
       0.8996893130000000      0.5659744170000000      0.4999591070000000     2
       0.8997907469999999      0.5658942950000000      0.7500233360000000     2
       0.8995270770000000      0.8995270290000000     -0.0001370890000000     2
       0.8996839880000000      0.8996838190000001      0.2497263990000000     2
       0.8996898780000000      0.8996898460000000      0.5002205880000000     2
       0.8995450109999999      0.8995450790000000      0.7501379640000000     2
       0.0656803010000000      0.2673700150000000      0.1249883100000000     2
       0.0657276810000000      0.2674042550000000      0.3749994180000000     2
       0.0657085310000000      0.2673954770000000      0.6249984320000000     2
       0.0657060210000000      0.2673926930000000      0.8749966560000000     2
       0.0660221600000000      0.6006687370000000      0.1250032250000000     2
       0.0661264380000000      0.6006106080000000      0.3749942380000000     2
       0.0660295750000000      0.6006651640000000      0.6249953140000000     2
       0.0661768070000000      0.6006360460000000      0.8749822650000000     2
       0.0661203630000000      0.9338793780000000      0.1249555470000000     2
       0.0659596630000000      0.9340401750000000      0.3749795960000000     2
       0.0661191240000000      0.9338811090000000      0.6250484600000000     2
       0.0661291820000000      0.9338703470000000      0.8749937360000000     2
       0.3986032910000000      0.2659948590000000      0.1245705660000000     2
       0.3990021250000000      0.2666759570000000      0.3749162620000000     2
       0.3986626560000000      0.2660804080000000      0.6252127600000000     2
       0.3989792540000000      0.2666130040000000      0.8749387390000000     2
       0.3987396660000000      0.6012602570000000      0.1250445560000000     2
       0.3979765870000000      0.6020230720000000      0.3749908320000000     2
       0.3988229080000000      0.6011771170000000      0.6246578440000000     2
       0.3990082910000000      0.6009916860000000      0.8749892990000000     2
       0.3993313530000000      0.9339778030000000      0.1250032280000000     2
       0.3993893530000000      0.9338736380000000      0.3749942510000000     2
       0.3993348790000000      0.9339703700000000      0.6249953550000000     2
       0.3993640210000000      0.9338232890000000      0.8749823620000000     2
       0.7329988540000000      0.2670012940000000      0.1247410050000000     2
       0.7332885340000000      0.2667115030000000      0.3749336730000000     2
       0.7329936320000000      0.2670065440000000      0.6252919460000000     2
       0.7328333220000000      0.2671689130000000      0.8748936580000000     2
       0.7340052700000000      0.6013965410000000      0.1245704920000000     2
       0.7333239220000000      0.6009980940000000      0.3749168090000000     2
       0.7339197060000000      0.6013373410000000      0.6252129910000001     2
       0.7333870130000000      0.6010207540000000      0.8749385570000000     2
       0.7326302940000000      0.9343201470000000      0.1249882230000000     2
       0.7325960070000000      0.9342723520000000      0.3749993150000000     2
       0.7326045930000000      0.9342914860000000      0.6249987830000000     2
       0.7326074920000000      0.9342943140000000      0.8749967740000000     2
       0.2673698000000000      0.0656804000000000      0.1249882790000000     2
       0.2674041940000000      0.0657277300000000      0.3749994060000000     2
       0.2673954220000000      0.0657085060000000      0.6249987520000000     2
       0.2673926770000000      0.0657059290000000      0.8749966940000000     2
       0.2659947950000000      0.3986033520000000      0.1245704740000000     2
       0.2666761720000000      0.3990021140000000      0.3749169750000000     2
       0.2660804710000000      0.3986626820000000      0.6252128219999999     2
       0.2666129560000000      0.3989791320000000      0.8749386660000000     2
       0.2670011130000000      0.7329990230000000      0.1247409390000000     2
       0.2667115890000000      0.7332884650000000      0.3749335130000000     2
       0.2670063160000000      0.7329938280000000      0.6252919120000000     2
       0.2671677320000000      0.7328332190000000      0.8748935770000000     2
       0.6006687410000000      0.0660220530000000      0.1250031660000000     2
       0.6006104080000000      0.0661263750000000      0.3749944890000000     2
       0.6006650820000000      0.0660295470000000      0.6249953700000001     2
       0.6006358530000000      0.0661766320000000      0.8749821440000000     2
       0.6012600040000000      0.3987399030000000      0.1250450150000000     2
       0.6020230490000000      0.3979767530000000      0.3749910930000000     2
       0.6011767290000000      0.3988233250000000      0.6246576040000000     2
       0.6009913940000000      0.3990084610000000      0.8749890680000000     2
       0.6013964180000000      0.7340051160000000      0.1245704990000000     2
       0.6009973180000000      0.7333232300000000      0.3749168350000000     2
       0.6013374650000000      0.7339195290000000      0.6252127480000000     2
       0.6010208300000000      0.7333871239999999      0.8749385650000000     2
       0.9338793340000000      0.0661203100000000      0.1249553720000000     2
       0.9340400970000000      0.0659598630000000      0.3749794870000000     2
       0.9338809470000000      0.0661191560000000      0.6250484120000001     2
       0.9338705340000000      0.0661290790000000      0.8749936990000000     2
       0.9339779110000000      0.3993313110000000      0.1250031690000000     2
       0.9338737290000000      0.3993894540000000      0.3749943090000000     2
       0.9339704350000000      0.3993349680000000      0.6249952290000000     2
       0.9338233770000000      0.3993641900000000      0.8749822560000000     2
       0.9343201680000000      0.7326302930000000      0.1249881680000000     2
       0.9342723370000000      0.7325960280000000      0.3749994060000000     2
       0.9342916570000001      0.7326048120000000      0.6249988780000000     2
       0.9342944590000000      0.7326074720000000      0.8749967510000000     2
 %endblock AtomicCoordinatesAndAtomicSpecies                                   
 
UseSaveData              F     # Default value
MD.UseSaveXV              F     # Default value
MD.UseSaveZM              F     # Default value
WriteCoorInitial              T
MD.TypeOfRun     CG                                                                                                                                  
MaxBondDistance          6.000000000     Bohr     # Default value
Output-Structure-Only              F     # Default value
SpinPolarized              T
NonCollinearSpin              F     # Default value
LongOutput              F     # Default value
WriteDenchar              T
WriteMullikenPop              0     # Default value
WriteHirshfeldPop              F     # Default value
WriteVoronoiPop              F     # Default value
PartialChargesAtEveryGeometry              F     # Default value
PartialChargesAtEveryScfStep              F     # Default value
MeshCutoff          250.0000000             Ry
# Above item originally: MeshCutoff          250.0000000     Ry        
NetCharge         -1.000000000    
MaxSCFIterations                      100
SCFMustConverge              F     # Default value
DM.NumberPulay                        6
DM.NumberBroyden              0     # Default value
DM.FIRE.Mixing              F     # Default value
DM.MixSCF1              F     # Default value
DM.PulayOnFile              F     # Default value
DM.Pulay.Avoid.First.After.Kick              F     # Default value
DM.MixingWeight         0.1000000000    
DM.OccupancyTolerance         0.1000000000E-11     # Default value
DM.NumberKick              0     # Default value
DM.KickMixingWeight         0.5000000000         # Default value
DM.Tolerance         0.1500000000E-03
DM.RequireEnergyConvergence              F     # Default value
DM.EnergyTolerance         0.7349806700E-05 Ry     # Default value
DM.RequireHarrisConvergence              F     # Default value
DM.HarrisTolerance         0.7349806700E-05 Ry     # Default value
DM.InitSpinAF              F     # Default value
UseSaveData              F     # Default value
DM.UseSaveDM              T
NeglNonOverlapInt              F     # Default value
SolutionMethod     diagon                                                                                                                              
Diag.DivideAndConquer              T     # Default value
Diag.Memory          1.000000000         # Default value
ElectronicTemperature         0.1900069269E-02         Ry
# Above item originally: ElectronicTemperature          300.0000000     K         
FixSpin              F     # Default value
ON.MaxNumIter           1000     # Default value
ON.etol         0.1000000000E-07     # Default value
ON.eta          0.000000000     Ry     # Default value
ON.eta_alpha          0.000000000     Ry     # Default value
ON.eta_beta          0.000000000     Ry     # Default value
On.RcLWF          9.500000000     Bohr     # Default value
ON.UseSaveLWF              F     # Default value
ON.functional     kim     # Default value
ON.ChemicalPotentialUse              F     # Default value
ON.ChemicalPotential              F     # Default value
ON.ChemicalPotentialRc          9.500000000     Bohr     # Default value
ON.ChemicalPotentialTemperature         0.5000000000E-01 Ry     # Default value
ON.ChemicalPotentialOrder            100     # Default value
MD.VariableCell              F     # Default value
MD.TypeOfRun     CG                                                                                                                                  
MD.UseSaveCG              F     # Default value
Optim.Broyden              F     # Default value
MD.NumCGsteps                        0
MD.MaxCGDispl         0.2000000000     Bohr     # Default value
MD.MaxForceTol         0.1555739508E-02    Ry/Bohr
# Above item originally: MD.MaxForceTol         0.4000000000E-01 eV/Ang    
MD.MaxStressTol         0.6797730000E-04 Ry/Bohr**3     # Default value
MD.InitialTimeStep              1     # Default value
MD.FinalTimeStep              1     # Default value
MD.LengthTimeStep          1.000000000     fs     # Default value
MD.Quench              F     # Default value
MD.FireQuench              F     # Default value
MD.InitialTemperature          0.000000000     K     # Default value
MD.TargetTemperature          0.000000000     K     # Default value
MD.TargetPressure          0.000000000     Ry/Bohr**3     # Default value
MD.NoseMass          100.0000000     Ry*fs**2     # Default value
MD.ParrinelloRahmanMass          100.0000000     Ry*fs**2     # Default value
MD.AnnealOption     TemperatureAndPressure     # Default value
MD.TauRelax          100.0000000     fs     # Default value
MD.BulkModulus         0.6797730000E-02 Ry/Bohr**3     # Default value
MD.FCDispl         0.4000000000E-01 Bohr     # Default value
MD.FCfirst              1     # Default value
MD.FClast            216     # Default value
UseSpatialDecomposition              F     # Default value
UseDomainDecomposition              F     # Default value
Harris_functional              F     # Default value
WriteKpoints              F     # Default value
WriteForces              T
WriteDM              T
WriteDM.NetCDF              T     # Default value
WriteDM.History.NetCDF              F     # Default value
WriteDMHS.NetCDF              T     # Default value
WriteDMHS.History.NetCDF              F     # Default value
SCF.Read.Charge.NetCDF              F     # Default value
SCF.Read.Deformation.Charge.NetCDF              F     # Default value
SaveInitialChargeDensity              F     # Default value
UseNewDiagk              F     # Default value
WriteBands              F     # Default value
WriteKbands              F     # Default value
WriteEigenvalues              T
WriteCoorStep              T
WriteMDhistory              T
WriteMDXmol              T
UseSaveData              F     # Default value
SaveHS              F     # Default value
FixAuxiliaryCell              F     # Default value
NaiveAuxiliaryCell              F     # Default value
ReInitialiseDM              T     # Default value
DM.AllowReuse              T     # Default value
DM.AllowExtrapolation              T     # Default value
MullikenInSCF              F     # Default value
WarningMinimumAtomicDistance          1.000000000     Bohr     # Default value
BornCharge              F     # Default value
ChangeKgridInMD              F     # Default value
Diag.ParallelOverK              F     # Default value
MD.RelaxCellOnly              F     # Default value
MD.RemoveIntraMolecularPressure              F     # Default value
COOP.Write              F     # Default value
SaveRho              T
SaveDeltaRho              T
SaveElectrostaticPotential              T
SaveNeutralAtomPotential              F     # Default value
SaveTotalPotential              T
SaveIonicCharge              T
SaveBaderCharge              F     # Default value
SaveTotalCharge              T
RcSpatial          0.000000000     Bohr     # Default value
ProcessorGridX              1     # Default value
ProcessorGridY              1     # Default value
ProcessorGridZ              1     # Default value
processorY             16     # Default value
blocksize              9     # Default value
NumberOfEigenStates           3240     # Default value
TimeReversalSymmetryForKpoints              T     # Default value

%block kgrid_Monkhorst_Pack                                                    
   2  0  0  0.5                                                                
   0  2  0  0.5                                                                
   0  0  2  0.5                                                                
%endblock kgrid_Monkhorst_Pack                                                 
 

%block Projected-density-of-states                                             
-20.00 15.00 0.200 500 eV                                                      
%endblock Projected-density-of-states                                          
 
TimeReversalSymmetryForKpoints              T     # Default value
PDOS.kgrid_cutoff          0.000000000     Bohr     # Default value
BandLines
LatticeConstant          1.889726878           Bohr
# Above item originally: LatticeConstant          1.000000000     Ang       
BandLinesScale     ReciprocalLatticeVectors                                                                                                            
LatticeConstant          1.889726878           Bohr
# Above item originally: LatticeConstant          1.000000000     Ang       

 %block LatticeVectors                                                         
      13.7820000000000000      0.0000000000000000      0.0000000000000000      
       0.0000000000000000     13.7820000000000000      0.0000000000000000      
       0.0000000000000000      0.0000000000000000     11.8360000000000003      
 %endblock LatticeVectors                                                      
 

 %block LatticeVectors                                                         
      13.7820000000000000      0.0000000000000000      0.0000000000000000      
       0.0000000000000000     13.7820000000000000      0.0000000000000000      
       0.0000000000000000      0.0000000000000000     11.8360000000000003      
 %endblock LatticeVectors                                                      
 

%block BandLines                                                               
 1  0.000  0.000  0.500 Z                                                      
20  0.500  0.500  0.500 A                                                      
20  0.500  0.500  0.000 M                                                      
20  0.000  0.000  0.000 G                                                      
20  0.000  0.000  0.500 Z                                                      
20  0.000  0.500  0.500 R                                                      
20  0.000  0.500  0.000 X                                                      
%endblock BandLines                                                            
 
BandLines
LatticeConstant          1.889726878           Bohr
# Above item originally: LatticeConstant          1.000000000     Ang       
BandLinesScale     ReciprocalLatticeVectors                                                                                                            
LatticeConstant          1.889726878           Bohr
# Above item originally: LatticeConstant          1.000000000     Ang       

 %block LatticeVectors                                                         
      13.7820000000000000      0.0000000000000000      0.0000000000000000      
       0.0000000000000000     13.7820000000000000      0.0000000000000000      
       0.0000000000000000      0.0000000000000000     11.8360000000000003      
 %endblock LatticeVectors                                                      
 

 %block LatticeVectors                                                         
      13.7820000000000000      0.0000000000000000      0.0000000000000000      
       0.0000000000000000     13.7820000000000000      0.0000000000000000      
       0.0000000000000000      0.0000000000000000     11.8360000000000003      
 %endblock LatticeVectors                                                      
 

%block BandLines                                                               
 1  0.000  0.000  0.500 Z                                                      
20  0.500  0.500  0.500 A                                                      
20  0.500  0.500  0.000 M                                                      
20  0.000  0.000  0.000 G                                                      
20  0.000  0.000  0.500 Z                                                      
20  0.000  0.500  0.500 R                                                      
20  0.000  0.500  0.000 X                                                      
%endblock BandLines                                                            
 
WFS.EnergyMin        -0.1797693135+309 Ry     # Default value
WFS.EnergyMax         0.1797693135+309 Ry     # Default value
LongOutput              F     # Default value
WriteWaveFunctions              T
WaveFuncKPoints
WriteWaveDebug              F     # Default value
LatticeConstant          1.889726878           Bohr
# Above item originally: LatticeConstant          1.000000000     Ang       
WaveFuncKPointsScale     ReciprocalLatticeVectors                                                                                                            
LatticeConstant          1.889726878           Bohr
# Above item originally: LatticeConstant          1.000000000     Ang       

 %block LatticeVectors                                                         
      13.7820000000000000      0.0000000000000000      0.0000000000000000      
       0.0000000000000000     13.7820000000000000      0.0000000000000000      
       0.0000000000000000      0.0000000000000000     11.8360000000000003      
 %endblock LatticeVectors                                                      
 

 %block LatticeVectors                                                         
      13.7820000000000000      0.0000000000000000      0.0000000000000000      
       0.0000000000000000     13.7820000000000000      0.0000000000000000      
       0.0000000000000000      0.0000000000000000     11.8360000000000003      
 %endblock LatticeVectors                                                      
 

%block WaveFuncKPoints                                                         
0.0 0.0 0.0 from 864 to 866                                                    
%endblock WaveFuncKPoints                                                      
 
WFS.EnergyMin        -0.1797693135+309 Ry     # Default value
WFS.EnergyMax         0.1797693135+309 Ry     # Default value
LongOutput              F     # Default value
WriteWaveFunctions              T
WaveFuncKPoints
WriteWaveDebug              F     # Default value
LatticeConstant          1.889726878           Bohr
# Above item originally: LatticeConstant          1.000000000     Ang       
WaveFuncKPointsScale     ReciprocalLatticeVectors                                                                                                            
LatticeConstant          1.889726878           Bohr
# Above item originally: LatticeConstant          1.000000000     Ang       

 %block LatticeVectors                                                         
      13.7820000000000000      0.0000000000000000      0.0000000000000000      
       0.0000000000000000     13.7820000000000000      0.0000000000000000      
       0.0000000000000000      0.0000000000000000     11.8360000000000003      
 %endblock LatticeVectors                                                      
 

 %block LatticeVectors                                                         
      13.7820000000000000      0.0000000000000000      0.0000000000000000      
       0.0000000000000000     13.7820000000000000      0.0000000000000000      
       0.0000000000000000      0.0000000000000000     11.8360000000000003      
 %endblock LatticeVectors                                                      
 

%block WaveFuncKPoints                                                         
0.0 0.0 0.0 from 864 to 866                                                    
%endblock WaveFuncKPoints                                                      
 
ForceAuxCell              F     # Default value
AtomicCoordinatesFormat     Fractional                                                                                                                          
AtomCoorFormatOut     Fractional                 # Default value
LatticeConstant          1.889726878           Bohr
# Above item originally: LatticeConstant          1.000000000     Ang       
DM.FormattedFiles              F     # Default value
DM.FormattedInput              F     # Default value
DM.FormattedOutput              F     # Default value
Harris_functional              F     # Default value
MeshSubDivisions              2     # Default value
LatticeConstant          1.889726878           Bohr
# Above item originally: LatticeConstant          1.000000000     Ang       

 %block LatticeVectors                                                         
      13.7820000000000000      0.0000000000000000      0.0000000000000000      
       0.0000000000000000     13.7820000000000000      0.0000000000000000      
       0.0000000000000000      0.0000000000000000     11.8360000000000003      
 %endblock LatticeVectors                                                      
 

 %block LatticeVectors                                                         
      13.7820000000000000      0.0000000000000000      0.0000000000000000      
       0.0000000000000000     13.7820000000000000      0.0000000000000000      
       0.0000000000000000      0.0000000000000000     11.8360000000000003      
 %endblock LatticeVectors                                                      
 
DirectPhi              F     # Default value
SimulateDoping              T
NetCharge         -1.000000000    
SlabDipoleCorrection              F     # Default value
Omega         0.1100000000         # Default value
On_the_fly              F     # Default value
HFX.SchwarzTolerance         0.1000000000E-05
HFX.StoreERIsTolerance         0.1000000000E-05
HFX.PairListTolerance         0.1000000000E-05
HFX.FarFieldTolerance         0.1000000000E-05
HFX.FarField              T
HFX.StoreERIs              F     # Default value
HFX.TruncateDM              T
HFX.Dynamic_parallel              T
HFX.FragSize                    50000
HFX.DumpFitData              T     # Default value
HFX.FitDataPoints            500     # Default value
HFX.MinimumNumberGaussians                        3
HFX.MaximumNumberGaussians                        5
HFX.SeparationExponents          1.400000000         # Default value
HFX.ToleranceFit         0.1000000000E-02     # Default value
HFX.UseFittedNAOs              T
HFX.GaussianEPS         0.1000000000E-04
Diag.ParallelOverK              F     # Default value
LatticeConstant          1.889726878           Bohr
# Above item originally: LatticeConstant          1.000000000     Ang       

 %block LatticeVectors                                                         
      13.7820000000000000      0.0000000000000000      0.0000000000000000      
       0.0000000000000000     13.7820000000000000      0.0000000000000000      
       0.0000000000000000      0.0000000000000000     11.8360000000000003      
 %endblock LatticeVectors                                                      
 

 %block LatticeVectors                                                         
      13.7820000000000000      0.0000000000000000      0.0000000000000000      
       0.0000000000000000     13.7820000000000000      0.0000000000000000      
       0.0000000000000000      0.0000000000000000     11.8360000000000003      
 %endblock LatticeVectors                                                      
 
Diag.AllInOne              F     # Default value
Diag.DivideAndConquer              T     # Default value
Diag.NoExpert              F     # Default value
Diag.PreRotate              F     # Default value
Diag.Use2D              T     # Default value
SingleExcitation              F     # Default value
OccupationFunction     FD     # Default value
OccupationFunction     FD     # Default value
Omega         0.1100000000         # Default value
On_the_fly              F     # Default value
HFX.SchwarzTolerance         0.1000000000E-05
HFX.StoreERIsTolerance         0.1000000000E-05
HFX.PairListTolerance         0.1000000000E-05
HFX.FarFieldTolerance         0.1000000000E-05
HFX.FarField              T
HFX.StoreERIs              F     # Default value
HFX.TruncateDM              T
HFX.Dynamic_parallel              T
HFX.FragSize                    50000
HFX.DumpFitData              T     # Default value
HFX.FitDataPoints            500     # Default value
HFX.MinimumNumberGaussians                        3
HFX.MaximumNumberGaussians                        5
HFX.SeparationExponents          1.400000000         # Default value
HFX.ToleranceFit         0.1000000000E-02     # Default value
HFX.UseFittedNAOs              T
HFX.GaussianEPS         0.1000000000E-04
WriteCoorXmol              T
WriteCoorCerius              F     # Default value
WFS.Write.For.Bands              F     # Default value

%block Projected-density-of-states                                             
-20.00 15.00 0.200 500 eV                                                      
%endblock Projected-density-of-states                                          
 
Diag.ParallelOverK              F     # Default value
BasisPressure         0.2000000000     GPa     # Default value
OpticalCalculation              F     # Default value

%block LocalDensityOfStates                                                    
-8.00 4.00  eV                                                                 
%endblock LocalDensityOfStates                                                 
 
