Siesta Version:                                        siesta-3.2
Architecture  : x86_64-unknown-linux-gnu--unknown
Compiler flags: mpiifort -O2 -g  -assume byterecl -w -fPIC -fp-model source
PARALLEL version

* Running on  384 nodes in parallel
>> Start of run:  28-MAY-2023  22:11:25

                           ***********************       
                           *  WELCOME TO SIESTA  *       
                           ***********************       

reinit: Reading from standard input
************************** Dump of input data file ****************************
SystemName      TiO2
SystemLabel     tio2
NumberOfSpecies	        2
%block ChemicalSpeciesLabel
  1  22   Ti
  2  8  O
%endblock ChemicalSpeciesLabel
MeshCutoff          250.0000000     Ry
SpinPolarized           .true.
%include scoord.fdf
DM.UseSaveDM            T
#MD.UseSaveXV            T
%block PS.lmax
   Ti    3
    O    3
%endblock PS.lmax
%block PAO.Basis
Ti    5      1.9243229
 n=3    0    1   E     89.2544944       2.4608930
   2.8872099
   1.00000000000000
 n=4    0    2   E     97.7980549       4.71452135
   4.8057173            4.6151393
   1.00000000000000        1.00000000000000
 n=3    1    1   E     73.5285737       2.7406764
   3.1432229
   1.00000000000000
 n=4    1    1   E     5.4801522       2.0394443
   3.0013932
   1.00000000000000
 n=3    2    2   E     28.9714917       3.4223389
    4.0842297            2.6826474
   1.00000000000000        1.00000000000000
O     3     -.2126369
 n=2    0    2   E      27.7694723       3.5781202
   4.3372307            2.6101394
   1.00000000000000        1.00000000000000
 n=2    1    2   E      25.8458591       4.1751665
   4.8459167            2.8438221
   1.00000000000000        1.00000000000000
 n=3    2    1   E      2.4082762       1.3604859
   3.3849443
   1.00000000000000
%endblock PAO.Basis
xc.functional     GGA
xc.authors        HSE06
%block kgrid_Monkhorst_Pack
   2  0  0  0.5
   0  2  0  0.5
   0  0  2  0.5
%endblock kgrid_Monkhorst_Pack
MaxSCFIterations        100
DM.MixingWeight         0.1
DM.NumberPulay          6
DM.MixingWeight         0.2         # New DM amount for next SCF cycle
DM.Tolerance            1.5d-4       # Tolerance in maximum difference
SolutionMethod          diagon      # OrderN or Diagon
ElectronicTemperature  300 K
NetCharge -1
#SlabDipoleCorrection .true.
SimulateDoping       .true.
%block DM.InitSpin
55 +
%endblock DM.InitSpin
MD.TypeOfRun        CG          # Type of dynamics:
MD.NumCGsteps       0
#MD.VariableCell   .true.
MD.MaxForceTol  0.04 eV/Ang
WriteMDXmol    .true.
#MD.MaxCGDispl  0.15 Bohr
#DM.AllowReuse  .true.
#DM.AllowExtrapolation  .true.
BandLinesScale ReciprocalLatticeVectors
%block BandLines
 1  0.000  0.000  0.500 Z
20  0.500  0.500  0.500 A
20  0.500  0.500  0.000 M
20  0.000  0.000  0.000 G
20  0.000  0.000  0.500 Z
20  0.000  0.500  0.500 R
20  0.000  0.500  0.000 X
%endblock BandLines
%block Projected-density-of-states
-20.00 15.00 0.200 500 eV
%endblock Projected-density-of-states
WriteDenchar            .true.
WriteWaveFunctions T
%block WaveFuncKPoints
0.0 0.0 0.0 from 864 to 866
%endblock WaveFuncKPoints
WaveFuncKPointsScale     ReciprocalLatticeVectors
%block LocalDensityOfStates
-8.00 4.00  eV
%endblock LocalDensityOfStates
# Output options
WriteDM            .true.
WriteCoorInitial   .true.
WriteCoorStep      .true.
WriteCoorXmol      .true.
WriteForces        .true.
WriteEigenvalues   .true.
WriteMDCoorXmol    .true.
WriteMDhistory     .true.
WriteSiestaDim     .true.
WriteDenchar       .true.
SaveRho                      .true.
SaveDeltaRho                 .true.
SaveIonicCharge              .true.
SaveTotalCharge              .true.
SaveElectrostaticPotential   .true.
SaveTotalPotential           .true.
%block NAO2GTO
Ti 7
3 0 1 5
5.06304789829199            -35.6717924214391
3.31373807719686            76.8633303931056
0.670406644152027           1.72872108681444
3.71496347430559            -154.24549388317
4.41598554030901            112.587194855657
4 0 1 6
0.441202974268689            -150.071379747411
5.27690582705904             103.720408211751
0.524649781222156            53.3428565589496
0.370573053550749            175.428804717205
0.326156097278806            -77.4652778840466
5.26166516355046             -104.224964847292
4 0 2 5
0.694500200728577            43.2802558385826
0.482936642641355            273.643267496283
0.554233890979043            -194.211444396034
0.431394162021397            -121.065711561792
3.10435960723413             -0.549188284035539
3 1 1 3
0.632915630171411           1.03009857098527
2.11444558310662            7.79466290595463
2.46174717371221            -5.4840915250327
4 1 1 5
2.44863530566875             10.2838086668641
0.554644500179955            4.83590130683068
0.285750541769038            13.759214643676
2.74065831252238             -7.62308347297908
0.31190182456528             -17.9366481463711
3 2 1 4
1.36870631350254             1.98082982444185
8.01937397877435             -1.39545231841736
0.409711034427782            0.299331504076561
4.10675115902018             8.26162660660348
3 2 2 4
5.50433570405124            23.1671423976058
0.951875520264245           1.66355875198474
2.70880774765734            4.15011215011257
6.13700886686494            -17.6813717082228
O  5
2 0 1 5
3.41980229494729             38.7112071561663
0.277547511404403            0.498414181114465
0.810602030035813            1.1046965794338
3.99862230308868             37.786767450746
3.70364631037674             -76.8500050844386
2 0 2 5
3.25363978744146             34.3761166857969
4.02608819522255             32.1247330919085
3.6300647458624              -66.8119177811748
0.490954126840092            -11.7157033807992
0.51254347849647             13.4742642380047
2 1 1 4
1.0970477510991              1.53037064233019
0.268550033357923            0.294903399746936
9.50887903084867             -0.530849047711627
4.00768745526609             4.01385819243416
2 1 2 4
6.08326226721387            -144.645028465317
2.29021821038278            2.18740789111945
6.02843270909986            147.665876649304
0.772755176743678           1.44934972343959
3 2 1 4
2.32296489876456            0.634437511263633
0.468018655042551           -14.3421215097284
0.464760624115432           14.8356099342484
18.6950379551616            -0.0135576634197983
%endblock NAO2GTO
HFX.MinimumNumberGaussians                  3
HFX.MaximumNumberGaussians                  5
HFX.UseFittedNAOs                 T
HFX.TruncateDM                    T
HFX.FarField                      T
HFX.FarFieldTolerance     0.100E-05
HFX.PairListTolerance     0.100E-05
HFX.SchwarzTolerance      0.100E-05
HFX.StoreERIsTolerance    0.100E-05
HFX.GaussianEPS                 1.0E-05
HFX.Dynamic_parallel              T
HFX.FragSize               50000
Denchar.TypeOfRun  3D
Denchar.PlotWaveFunctions   T
Dencahr.PlotCharge  T
Denchar.DensityUnits   Ele/Ang**3     # Units of Charge Density
#Denchar.PlaneGeneration threePoints
Denchar.CoorUnits Ang
Denchar.MinX   -0.0 Ang
Denchar.MaxX   13.782 Ang
Denchar.MinY   -0.0 Ang
Denchar.MaxY  13.782 Ang
Denchar.MinZ   -0.0 Ang
Denchar.MaxZ   11.836 Ang
Denchar.NumberPointsX       120         # Number of points in X-axis
Denchar.NumberPointsY       120        # Number of points in Y-axis
Denchar.NumberPointsZ       100         # Number of points in Z-axis
************************** End of input data file *****************************

reinit: -----------------------------------------------------------------------
reinit: System Name: TiO2
reinit: -----------------------------------------------------------------------
reinit: System Label: tio2                                                        
reinit: -----------------------------------------------------------------------

initatom: Reading input for the pseudopotentials and atomic orbitals ----------
 Species number:            1  Label: Ti Atomic number:          22
 Species number:            2  Label: O Atomic number:           8
Ground state valence configuration:   4s02  3d02
Reading pseudopotential information in formatted form from Ti.psf

Pseudopotential generated from a relativistic atomic calculation
There are spin-orbit pseudopotentials available
Spin-orbit interaction is not included in this calculation

Valence configuration for pseudopotential generation:
3s( 2.00) rc: 1.30
3p( 6.00) rc: 1.30
3d( 2.00) rc: 1.30
4f( 0.00) rc: 1.98
Ground state valence configuration:   2s02  2p04
Reading pseudopotential information in formatted form from O.psf

Valence configuration for pseudopotential generation:
2s( 2.00) rc: 1.14
2p( 4.00) rc: 1.14
3d( 0.00) rc: 1.14
4f( 0.00) rc: 1.14
Semicore shell(s) with  8 electrons included in the valence for
Ti
relmxkb: Read Max KB Ang. Momentum=    3 for species Ti
relmxkb: Read Max KB Ang. Momentum=    3 for species O

<basis_specs>
===============================================================================
Ti                   Z=  22    Mass=  47.880        Charge=  1.9243    
Lmxo=2 Lmxkb= 3    BasisType=split      Semic=T
L=0  Nsemic=1  Cnfigmx=4
          n=1  nzeta=1  polorb=0
            splnorm:   0.15000    
               vcte:    89.254    
               rinn:    2.4609    
                rcs:    2.8872    
            lambdas:    1.0000    
          n=2  nzeta=2  polorb=0
            splnorm:   0.15000    
               vcte:    97.798    
               rinn:    4.7145    
                rcs:    4.8057      4.6151    
            lambdas:    1.0000      1.0000    
L=1  Nsemic=1  Cnfigmx=4
          n=1  nzeta=1  polorb=0
            splnorm:   0.15000    
               vcte:    73.529    
               rinn:    2.7407    
                rcs:    3.1432    
            lambdas:    1.0000    
          n=2  nzeta=1  polorb=0
            splnorm:   0.15000    
               vcte:    5.4802    
               rinn:    2.0394    
                rcs:    3.0014    
            lambdas:    1.0000    
L=2  Nsemic=0  Cnfigmx=3
          n=1  nzeta=2  polorb=0
            splnorm:   0.15000    
               vcte:    28.971    
               rinn:    3.4223    
                rcs:    4.0842      2.6826    
            lambdas:    1.0000      1.0000    
-------------------------------------------------------------------------------
L=0  Nkbl=2  erefs: 0.17977+309 0.17977+309
L=1  Nkbl=2  erefs: 0.17977+309 0.17977+309
L=2  Nkbl=1  erefs: 0.17977+309
L=3  Nkbl=1  erefs: 0.17977+309
===============================================================================
</basis_specs>

atom: Called for Ti                    (Z =  22)

read_vps: Pseudopotential generation method:
read_vps: ATM3      Troullier-Martins                       
Total valence charge:   10.00000

atom: Pseudopotential generated from an ionic configuration
atom: with net charge 2.00

xc_check: Exchange-correlation functional:
xc_check: HSE06: JCP 125, 224106 (2006)
xc_check: WARNING: Pseudopotential generated with GGA Perdew, Burke & Ernzerhof 1996 functional
V l=0 = -2*Zval/r beyond r=  1.3450
V l=1 = -2*Zval/r beyond r=  1.3450
V l=2 = -2*Zval/r beyond r=  1.3450
V l=3 = -2*Zval/r beyond r=  1.9570
All V_l potentials equal beyond r=  1.9570
This should be close to max(r_c) in ps generation
All pots = -2*Zval/r beyond r=  1.9570

VLOCAL1: 99.0% of the norm of Vloc inside     11.334 Ry
VLOCAL1: 99.9% of the norm of Vloc inside     25.831 Ry
atom: Maximum radius for 4*pi*r*r*local-pseudopot. charge    2.39028
atom: Maximum radius for r*vlocal+2*Zval:    2.08320
KBgen: More than one KB projector for l=  0
KBgen: ghost states analysis will be not performed
KBgen: More than one KB projector for l=  1
KBgen: ghost states analysis will be not performed
GHOST: No ghost state for L =  2
GHOST: No ghost state for L =  3

KBgen: Kleinman-Bylander projectors: 
   l= 0   rc=  2.135936   el= -5.764798   Ekb= -5.758490   kbcos= -0.457917
   l= 0   rc=  2.245453   el= -1.263665   Ekb= 19.351392   kbcos=  0.026901
   l= 1   rc=  2.135936   el= -4.022955   Ekb= -4.274199   kbcos= -0.765742
   l= 1   rc=  2.273699   el= -0.914019   Ekb= -2.186043   kbcos= -0.071829
   l= 2   rc=  2.109401   el= -1.447423   Ekb=-15.723878   kbcos= -0.484458
   l= 3   rc=  2.360586   el= -0.285285   Ekb= -1.789711   kbcos= -0.025335

KBgen: Total number of  Kleinman-Bylander projectors:   20
atom: -------------------------------------------------------------------------

atom: SANKEY-TYPE ORBITALS:
atom: Selected multiple-zeta basis: split     

atom: basis set generated (by rescaling the valence charge)
atom: for a cation of charge   1.9243

SPLIT: Orbitals with angular momentum L= 0

SPLIT: Basis orbitals for state 3s

   izeta = 1
                 lambda =    1.000000
                     rc =    2.883251
                 energy =   -5.629800
                kinetic =    2.194219
    potential(screened) =   -7.824019
       potential(ionic) =  -22.997946

SPLIT: Basis orbitals for state 4s

   izeta = 1
                 lambda =    1.000000
                     rc =    4.874095
                 energy =   -1.093413
                kinetic =    1.429802
    potential(screened) =   -2.523215
       potential(ionic) =  -10.823805

   izeta = 2
                 rmatch =    4.636377
              splitnorm =    0.367047
                 energy =   -0.946464
                kinetic =    1.994886
    potential(screened) =   -2.941350
       potential(ionic) =  -12.304976

SPLIT: Orbitals with angular momentum L= 1

SPLIT: Basis orbitals for state 3p

   izeta = 1
                 lambda =    1.000000
                     rc =    3.186497
                 energy =   -3.891122
                kinetic =    4.908903
    potential(screened) =   -8.800025
       potential(ionic) =  -23.466978

SPLIT: Basis orbitals for state 4p

   izeta = 1
                 lambda =    1.000000
                     rc =    3.031084
                 energy =    1.001093
                kinetic =    6.061896
    potential(screened) =   -5.060803
       potential(ionic) =  -16.197645

SPLIT: Orbitals with angular momentum L= 2

SPLIT: Basis orbitals for state 3d

   izeta = 1
                 lambda =    1.000000
                     rc =    4.091575
                 energy =   -1.317849
                kinetic =    7.879301
    potential(screened) =   -9.197149
       potential(ionic) =  -22.406171

   izeta = 2
                 rmatch =    2.674909
              splitnorm =    0.139136
                 energy =   -1.033711
                kinetic =   10.998896
    potential(screened) =  -12.032607
       potential(ionic) =  -26.836474
atom: Total number of Sankey-type orbitals: 19

atm_pop: Valence configuration (for local Pseudopot. screening):
 3s( 2.00) 4s( 2.00)                                                  
 3p( 6.00) 4p( 0.00)                                                  
 3d( 2.00)                                                            
Vna: chval, zval:   12.00000  12.00000

Vna:  Cut-off radius for the neutral-atom potential:   4.874095

atom: _________________________________________________________________________

<basis_specs>
===============================================================================
O                    Z=   8    Mass=  16.000        Charge=-0.21264    
Lmxo=2 Lmxkb= 3    BasisType=split      Semic=F
L=0  Nsemic=0  Cnfigmx=2
          n=1  nzeta=2  polorb=0
            splnorm:   0.15000    
               vcte:    27.769    
               rinn:    3.5781    
                rcs:    4.3372      2.6101    
            lambdas:    1.0000      1.0000    
L=1  Nsemic=0  Cnfigmx=2
          n=1  nzeta=2  polorb=0
            splnorm:   0.15000    
               vcte:    25.846    
               rinn:    4.1752    
                rcs:    4.8459      2.8438    
            lambdas:    1.0000      1.0000    
L=2  Nsemic=0  Cnfigmx=3
          n=1  nzeta=1  polorb=0
            splnorm:   0.15000    
               vcte:    2.4083    
               rinn:    1.3605    
                rcs:    3.3849    
            lambdas:    1.0000    
-------------------------------------------------------------------------------
L=0  Nkbl=1  erefs: 0.17977+309
L=1  Nkbl=1  erefs: 0.17977+309
L=2  Nkbl=1  erefs: 0.17977+309
L=3  Nkbl=1  erefs: 0.17977+309
===============================================================================
</basis_specs>

atom: Called for O                     (Z =   8)

read_vps: Pseudopotential generation method:
read_vps: ATM3      Troullier-Martins                       
Total valence charge:    6.00000

xc_check: Exchange-correlation functional:
xc_check: HSE06: JCP 125, 224106 (2006)
xc_check: WARNING: Pseudopotential generated with GGA Perdew, Burke & Ernzerhof 1996 functional
V l=0 = -2*Zval/r beyond r=  1.1564
V l=1 = -2*Zval/r beyond r=  1.1564
V l=2 = -2*Zval/r beyond r=  1.1564
V l=3 = -2*Zval/r beyond r=  1.1564
All V_l potentials equal beyond r=  1.1278
This should be close to max(r_c) in ps generation
All pots = -2*Zval/r beyond r=  1.1564

VLOCAL1: 99.0% of the norm of Vloc inside     34.126 Ry
VLOCAL1: 99.9% of the norm of Vloc inside     77.774 Ry
atom: Maximum radius for 4*pi*r*r*local-pseudopot. charge    1.37759
atom: Maximum radius for r*vlocal+2*Zval:    1.18566
GHOST: No ghost state for L =  0
GHOST: No ghost state for L =  1
GHOST: No ghost state for L =  2
GHOST: No ghost state for L =  3

KBgen: Kleinman-Bylander projectors: 
   l= 0   rc=  1.343567   el= -1.757699   Ekb=  9.104727   kbcos=  0.329213
   l= 1   rc=  1.343567   el= -0.664257   Ekb= -7.968980   kbcos= -0.392603
   l= 2   rc=  1.541657   el=  0.002031   Ekb= -1.948709   kbcos= -0.003496
   l= 3   rc=  1.641105   el=  0.003153   Ekb= -0.751168   kbcos= -0.000353

KBgen: Total number of  Kleinman-Bylander projectors:   16
atom: -------------------------------------------------------------------------

atom: SANKEY-TYPE ORBITALS:
atom: Selected multiple-zeta basis: split     

atom: basis set generated (by rescaling the valence charge)
atom: for an anion of charge  -0.2126

SPLIT: Orbitals with angular momentum L= 0

SPLIT: Basis orbitals for state 2s

   izeta = 1
                 lambda =    1.000000
                     rc =    4.351355
                 energy =   -1.754774
                kinetic =    1.501152
    potential(screened) =   -3.255926
       potential(ionic) =  -11.087291

   izeta = 2
                 rmatch =    2.639108
              splitnorm =    0.144129
                 energy =   -1.549187
                kinetic =    2.331868
    potential(screened) =   -3.881055
       potential(ionic) =  -12.346758

SPLIT: Orbitals with angular momentum L= 1

SPLIT: Basis orbitals for state 2p

   izeta = 1
                 lambda =    1.000000
                     rc =    4.930772
                 energy =   -0.656561
                kinetic =    4.490725
    potential(screened) =   -5.147287
       potential(ionic) =  -12.650555

   izeta = 2
                 rmatch =    2.844677
              splitnorm =    0.146869
                 energy =   -0.483999
                kinetic =    6.663194
    potential(screened) =   -7.147193
       potential(ionic) =  -15.601103

SPLIT: Orbitals with angular momentum L= 2

SPLIT: Basis orbitals for state 3d

   izeta = 1
                 lambda =    1.000000
                     rc =    3.388770
                 energy =    2.007211
                kinetic =    3.177473
    potential(screened) =   -1.170262
       potential(ionic) =   -6.696760
atom: Total number of Sankey-type orbitals: 13

atm_pop: Valence configuration (for local Pseudopot. screening):
 2s( 2.00)                                                            
 2p( 4.00)                                                            
 3d( 0.00)                                                            
Vna: chval, zval:    6.00000   6.00000

Vna:  Cut-off radius for the neutral-atom potential:   4.930772

atom: _________________________________________________________________________

prinput: Basis input ----------------------------------------------------------

PAO.BasisType split     

%block ChemicalSpeciesLabel
    1   22 Ti                      # Species index, atomic number, species label
    2    8 O                       # Species index, atomic number, species label
%endblock ChemicalSpeciesLabel

%block PAO.Basis                 # Define Basis set
Ti                    5   1.924            # Label, l-shells, ionic net charge
 n=3   0   1                         # n, l, Nzeta 
   2.883   
   1.000   
 n=4   0   2                         # n, l, Nzeta 
   4.874      4.636   
   1.000      1.000   
 n=3   1   1                         # n, l, Nzeta 
   3.186   
   1.000   
 n=4   1   1                         # n, l, Nzeta 
   3.031   
   1.000   
 n=3   2   2                         # n, l, Nzeta 
   4.092      2.675   
   1.000      1.000   
O                     3  -0.213            # Label, l-shells, ionic net charge
 n=2   0   2                         # n, l, Nzeta 
   4.351      2.639   
   1.000      1.000   
 n=2   1   2                         # n, l, Nzeta 
   4.931      2.845   
   1.000      1.000   
 n=3   2   1                         # n, l, Nzeta 
   3.389   
   1.000   
%endblock PAO.Basis

prinput: ----------------------------------------------------------------------

 Read NAO2GTO from input fdf file
nao2gto_transfer: isp, inlz, ipgf, pgf_radius =     1    1    1     1.50795
nao2gto_transfer: isp, inlz, ipgf, pgf_radius =     1    1    2     1.86395
nao2gto_transfer: isp, inlz, ipgf, pgf_radius =     1    1    3     4.14404
nao2gto_transfer: isp, inlz, ipgf, pgf_radius =     1    1    4     1.76042
nao2gto_transfer: isp, inlz, ipgf, pgf_radius =     1    1    5     1.61465
nao2gto_transfer: is, inlz, fittedcut, origincut =     1    1     4.14404     2.88325
nao2gto_transfer: isp, inlz, ipgf, pgf_radius =     1    2    1     5.10827
nao2gto_transfer: isp, inlz, ipgf, pgf_radius =     1    2    2     1.47708
nao2gto_transfer: isp, inlz, ipgf, pgf_radius =     1    2    3     4.68444
nao2gto_transfer: isp, inlz, ipgf, pgf_radius =     1    2    4     5.57386
nao2gto_transfer: isp, inlz, ipgf, pgf_radius =     1    2    5     5.94128
nao2gto_transfer: isp, inlz, ipgf, pgf_radius =     1    2    6     1.47921
nao2gto_transfer: is, inlz, fittedcut, origincut =     1    2     5.94128     4.87409
nao2gto_transfer: isp, inlz, ipgf, pgf_radius =     1    3    1     4.07152
nao2gto_transfer: isp, inlz, ipgf, pgf_radius =     1    3    2     4.88256
nao2gto_transfer: isp, inlz, ipgf, pgf_radius =     1    3    3     4.55771
nao2gto_transfer: isp, inlz, ipgf, pgf_radius =     1    3    4     5.16602
nao2gto_transfer: isp, inlz, ipgf, pgf_radius =     1    3    5     1.92578
nao2gto_transfer: is, inlz, fittedcut, origincut =     1    3     5.16602     4.63638
nao2gto_transfer: isp, inlz, ipgf, pgf_radius =     1    4    1     4.53646
nao2gto_transfer: isp, inlz, ipgf, pgf_radius =     1    4    2     2.42139
nao2gto_transfer: isp, inlz, ipgf, pgf_radius =     1    4    3     2.23691
nao2gto_transfer: is, inlz, fittedcut, origincut =     1    4     4.53646     3.18650
nao2gto_transfer: isp, inlz, ipgf, pgf_radius =     1    5    1     2.24315
nao2gto_transfer: isp, inlz, ipgf, pgf_radius =     1    5    2     4.85874
nao2gto_transfer: isp, inlz, ipgf, pgf_radius =     1    5    3     6.85770
nao2gto_transfer: isp, inlz, ipgf, pgf_radius =     1    5    4     2.11522
nao2gto_transfer: isp, inlz, ipgf, pgf_radius =     1    5    5     6.55280
nao2gto_transfer: is, inlz, fittedcut, origincut =     1    5     6.85770     3.03108
nao2gto_transfer: isp, inlz, ipgf, pgf_radius =     1    6    1     3.17824
nao2gto_transfer: isp, inlz, ipgf, pgf_radius =     1    6    2     1.21858
nao2gto_transfer: isp, inlz, ipgf, pgf_radius =     1    6    3     6.07514
nao2gto_transfer: isp, inlz, ipgf, pgf_radius =     1    6    4     1.75417
nao2gto_transfer: is, inlz, fittedcut, origincut =     1    6     6.07514     4.09158
nao2gto_transfer: isp, inlz, ipgf, pgf_radius =     1    7    1     1.49598
nao2gto_transfer: isp, inlz, ipgf, pgf_radius =     1    7    2     3.86464
nao2gto_transfer: isp, inlz, ipgf, pgf_radius =     1    7    3     2.19811
nao2gto_transfer: isp, inlz, ipgf, pgf_radius =     1    7    4     1.40994
nao2gto_transfer: is, inlz, fittedcut, origincut =     1    7     3.86464     2.67491
nao2gto_transfer: isp, inlz, ipgf, pgf_radius =     2    1    1     1.83482
nao2gto_transfer: isp, inlz, ipgf, pgf_radius =     2    1    2     6.44057
nao2gto_transfer: isp, inlz, ipgf, pgf_radius =     2    1    3     3.76868
nao2gto_transfer: isp, inlz, ipgf, pgf_radius =     2    1    4     1.69683
nao2gto_transfer: isp, inlz, ipgf, pgf_radius =     2    1    5     1.76310
nao2gto_transfer: is, inlz, fittedcut, origincut =     2    1     6.44057     4.35135
nao2gto_transfer: isp, inlz, ipgf, pgf_radius =     2    2    1     1.88108
nao2gto_transfer: isp, inlz, ipgf, pgf_radius =     2    2    2     1.69103
nao2gto_transfer: isp, inlz, ipgf, pgf_radius =     2    2    3     1.78088
nao2gto_transfer: isp, inlz, ipgf, pgf_radius =     2    2    4     4.84253
nao2gto_transfer: isp, inlz, ipgf, pgf_radius =     2    2    5     4.73945
nao2gto_transfer: is, inlz, fittedcut, origincut =     2    2     4.84253     2.63911
nao2gto_transfer: isp, inlz, ipgf, pgf_radius =     2    3    1     3.40764
nao2gto_transfer: isp, inlz, ipgf, pgf_radius =     2    3    2     7.08239
nao2gto_transfer: isp, inlz, ipgf, pgf_radius =     2    3    3     1.10511
nao2gto_transfer: isp, inlz, ipgf, pgf_radius =     2    3    4     1.73499
nao2gto_transfer: is, inlz, fittedcut, origincut =     2    3     7.08239     4.93077
nao2gto_transfer: isp, inlz, ipgf, pgf_radius =     2    4    1     1.39547
nao2gto_transfer: isp, inlz, ipgf, pgf_radius =     2    4    2     2.32271
nao2gto_transfer: isp, inlz, ipgf, pgf_radius =     2    4    3     1.40208
nao2gto_transfer: isp, inlz, ipgf, pgf_radius =     2    4    4     4.08914
nao2gto_transfer: is, inlz, fittedcut, origincut =     2    4     4.08914     2.84468
nao2gto_transfer: isp, inlz, ipgf, pgf_radius =     2    5    1     2.38869
nao2gto_transfer: isp, inlz, ipgf, pgf_radius =     2    5    2     5.65727
nao2gto_transfer: isp, inlz, ipgf, pgf_radius =     2    5    3     5.67848
nao2gto_transfer: isp, inlz, ipgf, pgf_radius =     2    5    4     0.76640
nao2gto_transfer: is, inlz, fittedcut, origincut =     2    5     5.67848     3.38877
%block NAO2GTO
Ti   7
3  0  1  5
       5.063047898   -35.671792421
       3.313738077    76.863330393
       0.670406644     1.728721087
       3.714963474  -154.245493883
       4.415985540   112.587194856
4  0  1  6
       0.441202974  -150.071379747
       5.276905827   103.720408212
       0.524649781    53.342856559
       0.370573054   175.428804717
       0.326156097   -77.465277884
       5.261665164  -104.224964847
4  0  2  5
       0.694500201    43.280255839
       0.482936643   273.643267496
       0.554233891  -194.211444396
       0.431394162  -121.065711562
       3.104359607    -0.549188284
3  1  1  3
       0.632915630     1.030098571
       2.114445583     7.794662906
       2.461747174    -5.484091525
4  1  1  5
       2.448635306    10.283808667
       0.554644500     4.835901307
       0.285750542    13.759214644
       2.740658313    -7.623083473
       0.311901825   -17.936648146
3  2  1  4
       1.368706314     1.980829824
       8.019373979    -1.395452318
       0.409711034     0.299331504
       4.106751159     8.261626607
3  2  2  4
       5.504335704    23.167142398
       0.951875520     1.663558752
       2.708807748     4.150112150
       6.137008867   -17.681371708
O   5
2  0  1  5
       3.419802295    38.711207156
       0.277547511     0.498414181
       0.810602030     1.104696579
       3.998622303    37.786767451
       3.703646310   -76.850005084
2  0  2  5
       3.253639787    34.376116686
       4.026088195    32.124733092
       3.630064746   -66.811917781
       0.490954127   -11.715703381
       0.512543478    13.474264238
2  1  1  4
       1.097047751     1.530370642
       0.268550033     0.294903400
       9.508879031    -0.530849048
       4.007687455     4.013858192
2  1  2  4
       6.083262267  -144.645028465
       2.290218210     2.187407891
       6.028432709   147.665876649
       0.772755177     1.449349723
3  2  1  4
       2.322964899     0.634437511
       0.468018655   -14.342121510
       0.464760624    14.835609934
      18.695037955    -0.013557663
%endblock NAO2GTO
 Use fitted NAOs as new basis
coor:   Atomic-coordinates input format  =     Fractional

siesta: Atomic coordinates (Bohr) and species
siesta:      0.00004   0.00003  -0.00068  1        1
siesta:      0.00001   0.00001   5.58943  1        2
siesta:     -0.00001  -0.00002  11.18495  1        3
siesta:      0.00001   0.00001  16.77673  1        4
siesta:     -0.00241   8.68230  -0.00028  1        5
siesta:     -0.00193   8.68102   5.59094  1        6
siesta:     -0.00182   8.68078  11.18417  1        7
siesta:     -0.00235   8.68240  16.77543  1        8
siesta:      0.00241  17.36191  -0.00028  1        9
siesta:      0.00192  17.36319   5.59094  1       10
siesta:      0.00182  17.36343  11.18417  1       11
siesta:      0.00234  17.36180  16.77543  1       12
siesta:      8.68230  -0.00242  -0.00029  1       13
siesta:      8.68102  -0.00193   5.59094  1       14
siesta:      8.68078  -0.00182  11.18416  1       15
siesta:      8.68240  -0.00234  16.77542  1       16
siesta:      8.71451   8.71450   0.00246  1       17
siesta:      8.68959   8.68959   5.59209  1       18
siesta:      8.67828   8.67828  11.18253  1       19
siesta:      8.71383   8.71383  16.77058  1       20
siesta:      8.68140  17.36282   0.00130  1       21
siesta:      8.67852  17.36568   5.59541  1       22
siesta:      8.67344  17.37077  11.17829  1       23
siesta:      8.68667  17.35755  16.77128  1       24
siesta:     17.36192   0.00241  -0.00028  1       25
siesta:     17.36320   0.00192   5.59094  1       26
siesta:     17.36343   0.00182  11.18417  1       27
siesta:     17.36181   0.00234  16.77543  1       28
siesta:     17.36282   8.68139   0.00129  1       29
siesta:     17.36570   8.67852   5.59540  1       30
siesta:     17.37078   8.67343  11.17826  1       31
siesta:     17.35742   8.68680  16.77113  1       32
siesta:     17.32972  17.32972   0.00246  1       33
siesta:     17.35468  17.35468   5.59207  1       34
siesta:     17.36593  17.36593  11.18253  1       35
siesta:     17.33038  17.33037  16.77059  1       36
siesta:      4.34642   4.34641   2.79082  1       37
siesta:      4.33502   4.33502   8.38461  1       38
siesta:      4.34215   4.34215  13.98634  1       39
siesta:      4.35401   4.35401  19.57200  1       40
siesta:      4.34183  13.01584   2.79526  1       41
siesta:      4.33905  13.01987   8.38755  1       42
siesta:      4.34203  13.01631  13.97964  1       43
siesta:      4.34153  13.01574  19.57086  1       44
siesta:      4.34034  21.70387   2.79544  1       45
siesta:      4.33627  21.70795   8.38745  1       46
siesta:      4.33980  21.70441  13.98008  1       47
siesta:      4.34183  21.70238  19.57087  1       48
siesta:     13.01584   4.34183   2.79526  1       49
siesta:     13.01987   4.33905   8.38755  1       50
siesta:     13.01622   4.34213  13.97964  1       51
siesta:     13.01574   4.34152  19.57087  1       52
siesta:     13.02211  13.02212   2.86912  1       53
siesta:     13.02211  13.02211   8.37344  1       54
siesta:     13.02210  13.02212  13.83797  1       55
siesta:     13.02211  13.02211  19.54089  1       56
siesta:     13.02837  21.70238   2.79526  1       57
siesta:     13.02434  21.70516   8.38755  1       58
siesta:     13.02790  21.70218  13.97963  1       59
siesta:     13.02848  21.70269  19.57086  1       60
siesta:     21.70388   4.34033   2.79544  1       61
siesta:     21.70795   4.33626   8.38745  1       62
siesta:     21.70442   4.33980  13.98008  1       63
siesta:     21.70236   4.34185  19.57087  1       64
siesta:     21.70238  13.02837   2.79526  1       65
siesta:     21.70516  13.02434   8.38755  1       66
siesta:     21.70219  13.02789  13.97964  1       67
siesta:     21.70269  13.02847  19.57087  1       68
siesta:     21.69792  21.69792   2.79058  1       69
siesta:     21.70919  21.70918   8.38456  1       70
siesta:     21.70207  21.70205  13.98630  1       71
siesta:     21.69016  21.69016  19.57194  1       72
siesta:      2.61675   2.61675  -0.00305  2       73
siesta:      2.61267   2.61267   5.58556  2       74
siesta:      2.61250   2.61250  11.18834  2       75
siesta:      2.61627   2.61627  16.77820  2       76
siesta:      2.60888  11.30665  -0.00140  2       77
siesta:      2.61178  11.30448   5.59231  2       78
siesta:      2.61251  11.30386  11.18248  2       79
siesta:      2.60987  11.30595  16.77563  2       80
siesta:      2.62207  19.98476  -0.00033  2       81
siesta:      2.62096  19.98568   5.59163  2       82
siesta:      2.62164  19.98501  11.18349  2       83
siesta:      2.62105  19.98559  16.77524  2       84
siesta:     11.30665   2.60888  -0.00140  2       85
siesta:     11.30447   2.61178   5.59231  2       86
siesta:     11.30386   2.61251  11.18249  2       87
siesta:     11.30594   2.60987  16.77563  2       88
siesta:     11.30024  11.30024  -0.03252  2       89
siesta:     11.23979  11.23979   5.46725  2       90
siesta:     11.23388  11.23388  11.26826  2       91
siesta:     11.29640  11.29640  16.77683  2       92
siesta:     11.30096  19.99314  -0.00100  2       93
siesta:     11.30160  19.99500   5.58963  2       94
siesta:     11.29987  19.99586  11.18494  2       95
siesta:     11.30341  19.99013  16.77470  2       96
siesta:     19.98476   2.62207  -0.00033  2       97
siesta:     19.98568   2.62096   5.59163  2       98
siesta:     19.98501   2.62164  11.18349  2       99
siesta:     19.98559   2.62105  16.77524  2      100
siesta:     19.99314  11.30097  -0.00100  2      101
siesta:     19.99500  11.30160   5.58963  2      102
siesta:     19.99585  11.29987  11.18494  2      103
siesta:     19.99012  11.30342  16.77469  2      104
siesta:     19.98927  19.98927  -0.00123  2      105
siesta:     20.00918  20.00918   5.59195  2      106
siesta:     20.01081  20.01081  11.18295  2      107
siesta:     19.99006  19.99006  16.77464  2      108
siesta:      6.05495   6.05495  -0.00123  2      109
siesta:      6.03505   6.03505   5.59197  2      110
siesta:      6.03341   6.03341  11.18295  2      111
siesta:      6.05415   6.05415  16.77465  2      112
siesta:      6.05107  14.74326  -0.00100  2      113
siesta:      6.04921  14.74262   5.58964  2      114
siesta:      6.04835  14.74434  11.18494  2      115
siesta:      6.05408  14.74080  16.77469  2      116
siesta:      6.05946  23.42215  -0.00033  2      117
siesta:      6.05854  23.42325   5.59162  2      118
siesta:      6.05921  23.42257  11.18349  2      119
siesta:      6.05863  23.42317  16.77524  2      120
siesta:     14.74325   6.05107  -0.00100  2      121
siesta:     14.74262   6.04921   5.58963  2      122
siesta:     14.74435   6.04836  11.18494  2      123
siesta:     14.74080   6.05409  16.77469  2      124
siesta:     14.74397  14.74397  -0.03253  2      125
siesta:     14.80444  14.80444   5.46725  2      126
siesta:     14.81034  14.81033  11.26826  2      127
siesta:     14.74782  14.74782  16.77683  2      128
siesta:     14.73756  23.43533  -0.00140  2      129
siesta:     14.73974  23.43244   5.59231  2      130
siesta:     14.74036  23.43170  11.18248  2      131
siesta:     14.73827  23.43434  16.77563  2      132
siesta:     23.42215   6.05946  -0.00032  2      133
siesta:     23.42325   6.05854   5.59163  2      134
siesta:     23.42257   6.05921  11.18349  2      135
siesta:     23.42317   6.05862  16.77524  2      136
siesta:     23.43533  14.73756  -0.00140  2      137
siesta:     23.43244  14.73974   5.59231  2      138
siesta:     23.43170  14.74036  11.18249  2      139
siesta:     23.43434  14.73827  16.77563  2      140
siesta:     23.42748  23.42748  -0.00307  2      141
siesta:     23.43156  23.43156   5.58558  2      142
siesta:     23.43172  23.43172  11.18834  2      143
siesta:     23.42794  23.42795  16.77819  2      144
siesta:      1.71059   6.96344   2.79559  2      145
siesta:      1.71183   6.96433   8.38754  2      146
siesta:      1.71133   6.96411  13.97922  2      147
siesta:      1.71126   6.96403  19.57088  2      148
siesta:      1.71950  15.64395   2.79592  2      149
siesta:      1.72221  15.64243   8.38742  2      150
siesta:      1.71969  15.64385  13.97915  2      151
siesta:      1.72352  15.64309  19.57056  2      152
siesta:      1.72205  24.32216   2.79486  2      153
siesta:      1.71787  24.32634   8.38710  2      154
siesta:      1.72202  24.32220  13.98034  2      155
siesta:      1.72228  24.32192  19.57082  2      156
siesta:     10.38131   6.92763   2.78625  2      157
siesta:     10.39170   6.94537   8.38568  2      158
siesta:     10.38286   6.92986  13.98401  2      159
siesta:     10.39110   6.94373  19.56959  2      160
siesta:     10.38486  15.65935   2.79685  2      161
siesta:     10.36499  15.67922   8.38735  2      162
siesta:     10.38703  15.65719  13.97160  2      163
siesta:     10.39186  15.65236  19.57072  2      164
siesta:     10.40027  24.32472   2.79592  2      165
siesta:     10.40178  24.32201   8.38742  2      166
siesta:     10.40036  24.32453  13.97915  2      167
siesta:     10.40112  24.32070  19.57056  2      168
siesta:     19.09038   6.95384   2.79006  2      169
siesta:     19.09792   6.94629   8.38607  2      170
siesta:     19.09024   6.95398  13.98578  2      171
siesta:     19.08607   6.95820  19.56858  2      172
siesta:     19.11659  15.66290   2.78624  2      173
siesta:     19.09885  15.65252   8.38569  2      174
siesta:     19.11436  15.66136  13.98402  2      175
siesta:     19.10049  15.65311  19.56958  2      176
siesta:     19.08078  24.33364   2.79559  2      177
siesta:     19.07989  24.33239   8.38754  2      178
siesta:     19.08011  24.33289  13.97923  2      179
siesta:     19.08019  24.33296  19.57088  2      180
siesta:      6.96344   1.71059   2.79559  2      181
siesta:      6.96433   1.71183   8.38754  2      182
siesta:      6.96410   1.71133  13.97923  2      183
siesta:      6.96403   1.71126  19.57088  2      184
siesta:      6.92763  10.38131   2.78624  2      185
siesta:      6.94537  10.39170   8.38570  2      186
siesta:      6.92986  10.38286  13.98401  2      187
siesta:      6.94373  10.39110  19.56958  2      188
siesta:      6.95383  19.09038   2.79006  2      189
siesta:      6.94629  19.09792   8.38607  2      190
siesta:      6.95397  19.09025  13.98578  2      191
siesta:      6.95817  19.08607  19.56858  2      192
siesta:     15.64395   1.71949   2.79592  2      193
siesta:     15.64243   1.72221   8.38743  2      194
siesta:     15.64385   1.71969  13.97915  2      195
siesta:     15.64309   1.72352  19.57056  2      196
siesta:     15.65935  10.38487   2.79686  2      197
siesta:     15.67922  10.36499   8.38735  2      198
siesta:     15.65718  10.38704  13.97160  2      199
siesta:     15.65235  10.39186  19.57071  2      200
siesta:     15.66290  19.11659   2.78624  2      201
siesta:     15.65250  19.09883   8.38569  2      202
siesta:     15.66136  19.11436  13.98401  2      203
siesta:     15.65312  19.10049  19.56958  2      204
siesta:     24.32215   1.72205   2.79485  2      205
siesta:     24.32634   1.71787   8.38709  2      206
siesta:     24.32220   1.72202  13.98034  2      207
siesta:     24.32193   1.72228  19.57082  2      208
siesta:     24.32472  10.40027   2.79592  2      209
siesta:     24.32201  10.40179   8.38743  2      210
siesta:     24.32453  10.40037  13.97915  2      211
siesta:     24.32070  10.40113  19.57056  2      212
siesta:     24.33364  19.08078   2.79559  2      213
siesta:     24.33239  19.07989   8.38754  2      214
siesta:     24.33289  19.08012  13.97923  2      215
siesta:     24.33297  19.08019  19.57088  2      216

siesta: System type = bulk      

initatomlists: Number of atoms, orbitals, and projectors:    216  3240  3744

siesta: ******************** Simulation parameters ****************************
siesta:
siesta: The following are some of the parameters of the simulation.
siesta: A complete list of the parameters used, including default values,
siesta: can be found in file out.fdf
siesta:
redata: Non-Collinear-spin run           =     F
redata: SpinPolarized (Up/Down) run      =     T
redata: Number of spin components        =     2
redata: Long output                      =     F
redata: Number of Atomic Species         =        2
redata: Charge density info will appear in .RHO file
redata: Write Mulliken Pop.              =     NO
redata: Mesh Cutoff                      =   250.0000  Ry
redata: Net charge of the system         =    -1.0000 |e|
redata: Max. number of SCF Iter          =      100
redata: Performing Pulay mixing using    =     6 iterations
redata: Mix DM in first SCF step ?       =     F
redata: Write Pulay info on disk?        =     F
redata: Discard 1st Pulay DM after  kick =     F
redata: New DM Mixing Weight             =     0.1000
redata: New DM Occupancy tolerance       = 0.000000000001
redata: No kicks to SCF
redata: DM Mixing Weight for Kicks       =     0.5000
redata: DM Tolerance for SCF             =     0.000150
redata: Require Energy convergence for SCF =     F
redata: DM Energy tolerance for SCF      =     0.000100 eV
redata: Require Harris convergence for SCF =     F
redata: DM Harris energy tolerance for SCF =     0.000100 eV
redata: Antiferro initial spin density   =     F
redata: Using Saved Data (generic)   =     F
redata: Use continuation files for DM    =     T
redata: Neglect nonoverlap interactions  =     F
redata: Method of Calculation            =     Diagonalization
redata: Divide and Conquer               =     T
redata: Electronic Temperature           =     0.0019  Ry
redata: Fix the spin of the system       =     F
redata: Dynamics option                  =     CG coord. optimization
redata: Variable cell                    =     F
redata: Use continuation files for CG    =     F
redata: Max atomic displ per move        =     0.2000  Bohr
redata: Maximum number of CG moves       =        0
redata: Force tolerance                  =     0.0016  Ry/Bohr
redata: ***********************************************************************
Total number of electrons:  1729.000000
Total ionic charge:  1728.000000
madelung: WARNING: Charged system, but not an atom or molecule.
madelung: WARNING: Energy correction terms can not be applied. 
madelung: WARNING: Continue only if you really know what you are doing.

* ProcessorY, Blocksize:   16   9

 Kpoints in:            4 . Kpoints trimmed:            4

siesta: k-grid: Number of k-points =     4
siesta: k-grid: Cutoff (effective) =    11.836 Ang
siesta: k-grid: Supercell and displacements
siesta: k-grid:    2   0   0      0.500
siesta: k-grid:    0   2   0      0.500
siesta: k-grid:    0   0   2      0.500
Naive supercell factors:     2    2    2

superc: Internal auxiliary supercell:     2 x     2 x     2  =       8
superc: Number of atoms, orbitals, and projectors:   1728  25920  29952

* Maximum dynamic memory allocated =     7 MB

siesta:                 ==============================
                            Begin CG move =      0
                        ==============================

outcoor: Atomic coordinates (fractional):                   
    0.00000141    0.00000122   -0.00003028   1       1  Ti
    0.00000033    0.00000023    0.24989834   1       2  Ti
   -0.00000025   -0.00000063    0.50006904   1       3  Ti
    0.00000042    0.00000052    0.75007278   1       4  Ti
   -0.00009271    0.33336756   -0.00001252   1       5  Ti
   -0.00007401    0.33331842    0.24996598   1       6  Ti
   -0.00006994    0.33330923    0.50003405   1       7  Ti
   -0.00009006    0.33337159    0.75001443   1       8  Ti
    0.00009250    0.66663219   -0.00001264   1       9  Ti
    0.00007374    0.66668138    0.24996578   1      10  Ti
    0.00006994    0.66669053    0.50003410   1      11  Ti
    0.00008981    0.66662783    0.75001451   1      12  Ti
    0.33336753   -0.00009299   -0.00001287   1      13  Ti
    0.33331848   -0.00007413    0.24996591   1      14  Ti
    0.33330936   -0.00007001    0.50003388   1      15  Ti
    0.33337170   -0.00008984    0.75001404   1      16  Ti
    0.33460431    0.33460407    0.00010980   1      17  Ti
    0.33364774    0.33364775    0.25001722   1      18  Ti
    0.33321342    0.33321342    0.49996116   1      19  Ti
    0.33457843    0.33457828    0.74979760   1      20  Ti
    0.33333318    0.66666684    0.00005811   1      21  Ti
    0.33322267    0.66677702    0.25016562   1      22  Ti
    0.33302768    0.66697217    0.49977129   1      23  Ti
    0.33353540    0.66646465    0.74982901   1      24  Ti
    0.66663235    0.00009248   -0.00001255   1      25  Ti
    0.66668149    0.00007372    0.24996585   1      26  Ti
    0.66669063    0.00006995    0.50003404   1      27  Ti
    0.66662810    0.00008967    0.75001435   1      28  Ti
    0.66666704    0.33333278    0.00005785   1      29  Ti
    0.66677748    0.33322243    0.25016537   1      30  Ti
    0.66697271    0.33302726    0.49977011   1      31  Ti
    0.66645973    0.33354029    0.74982232   1      32  Ti
    0.66539620    0.66539608    0.00011010   1      33  Ti
    0.66635439    0.66635432    0.25001641   1      34  Ti
    0.66678650    0.66678645    0.49996107   1      35  Ti
    0.66542130    0.66542121    0.74979797   1      36  Ti
    0.16688619    0.16688574    0.12477521   1      37  Ti
    0.16644850    0.16644848    0.37486827   1      38  Ti
    0.16672221    0.16672217    0.62531660   1      39  Ti
    0.16717759    0.16717751    0.87504669   1      40  Ti
    0.16670989    0.49975935    0.12497352   1      41  Ti
    0.16660316    0.49991418    0.37499987   1      42  Ti
    0.16671767    0.49977755    0.62501703   1      43  Ti
    0.16669840    0.49975542    0.87499578   1      44  Ti
    0.16665258    0.83334703    0.12498162   1      45  Ti
    0.16649634    0.83350360    0.37499530   1      46  Ti
    0.16663195    0.83336795    0.62503679   1      47  Ti
    0.16670986    0.83328998    0.87499605   1      48  Ti
    0.49975952    0.16670978    0.12497358   1      49  Ti
    0.49991401    0.16660312    0.37499975   1      50  Ti
    0.49977389    0.16672135    0.62501740   1      51  Ti
    0.49975553    0.16669809    0.87499609   1      52  Ti
    0.50000017    0.50000028    0.12827592   1      53  Ti
    0.50000002    0.50000018    0.37436886   1      54  Ti
    0.49999954    0.50000034    0.61868327   1      55  Ti
    0.49999995    0.49999995    0.87365561   1      56  Ti
    0.50024046    0.83328998    0.12497366   1      57  Ti
    0.50008589    0.83339654    0.37499980   1      58  Ti
    0.50022221    0.83328234    0.62501700   1      59  Ti
    0.50024460    0.83330159    0.87499577   1      60  Ti
    0.83334729    0.16665249    0.12498142   1      61  Ti
    0.83350387    0.16649604    0.37499539   1      62  Ti
    0.83336798    0.16663186    0.62503701   1      63  Ti
    0.83328920    0.16671062    0.87499602   1      64  Ti
    0.83329000    0.50024033    0.12497349   1      65  Ti
    0.83339657    0.50008587    0.37499968   1      66  Ti
    0.83328239    0.50022216    0.62501711   1      67  Ti
    0.83330169    0.50024424    0.87499598   1      68  Ti
    0.83311857    0.83311842    0.12476420   1      69  Ti
    0.83355132    0.83355109    0.37486609   1      70  Ti
    0.83327795    0.83327734    0.62531494   1      71  Ti
    0.83282078    0.83282061    0.87504401   1      72  Ti
    0.10047343    0.10047351   -0.00013621   2      73  O
    0.10031674    0.10031670    0.24972562   2      74  O
    0.10031008    0.10031009    0.50022057   2      75  O
    0.10045509    0.10045511    0.75013843   2      76  O
    0.10017132    0.43413289   -0.00006272   2      77  O
    0.10028238    0.43404944    0.25002706   2      78  O
    0.10031063    0.43402556    0.49995893   2      79  O
    0.10020926    0.43410592    0.75002339   2      80  O
    0.10067761    0.76733957   -0.00001480   2      81  O
    0.10063515    0.76737490    0.24999673   2      82  O
    0.10066101    0.76734936    0.50000385   2      83  O
    0.10063840    0.76737161    0.75000617   2      84  O
    0.43413271    0.10017130   -0.00006278   2      85  O
    0.43404935    0.10028253    0.25002715   2      86  O
    0.43402560    0.10031074    0.49995899   2      87  O
    0.43410568    0.10020913    0.75002342   2      88  O
    0.43388689    0.43388693   -0.00145412   2      89  O
    0.43156564    0.43156564    0.24443589   2      90  O
    0.43133878    0.43133863    0.50379399   2      91  O
    0.43373916    0.43373919    0.75007692   2      92  O
    0.43391445    0.76766152   -0.00004472   2      93  O
    0.43393899    0.76773289    0.24990742   2      94  O
    0.43387267    0.76776594    0.50006848   2      95  O
    0.43400862    0.76754579    0.74998176   2      96  O
    0.76733954    0.10067756   -0.00001464   2      97  O
    0.76737488    0.10063513    0.24999684   2      98  O
    0.76734934    0.10066116    0.50000393   2      99  O
    0.76737162    0.10063845    0.75000605   2     100  O
    0.76766150    0.43391473   -0.00004472   2     101  O
    0.76773287    0.43393908    0.24990756   2     102  O
    0.76776565    0.43387256    0.50006849   2     103  O
    0.76754565    0.43400873    0.74998151   2     104  O
    0.76751290    0.76751296   -0.00005482   2     105  O
    0.76827713    0.76827713    0.25001095   2     106  O
    0.76833978    0.76833981    0.49997977   2     107  O
    0.76754311    0.76754318    0.74997912   2     108  O
    0.23248741    0.23248748   -0.00005485   2     109  O
    0.23172335    0.23172338    0.25001188   2     110  O
    0.23166032    0.23166030    0.49997978   2     111  O
    0.23245643    0.23245658    0.74997962   2     112  O
    0.23233838    0.56608564   -0.00004473   2     113  O
    0.23226701    0.56606116    0.24990759   2     114  O
    0.23223392    0.56612738    0.50006858   2     115  O
    0.23245406    0.56599144    0.74998155   2     116  O
    0.23266060    0.89932238   -0.00001462   2     117  O
    0.23262515    0.89936472    0.24999651   2     118  O
    0.23265078    0.89933861    0.50000405   2     119  O
    0.23262847    0.89936170    0.75000613   2     120  O
    0.56608536    0.23233839   -0.00004482   2     121  O
    0.56606104    0.23226709    0.24990747   2     122  O
    0.56612748    0.23223415    0.50006850   2     123  O
    0.56599142    0.23245428    0.74998140   2     124  O
    0.56611290    0.56611296   -0.00145434   2     125  O
    0.56843497    0.56843488    0.24443581   2     126  O
    0.56866132    0.56866117    0.50379396   2     127  O
    0.56626089    0.56626087    0.75007699   2     128  O
    0.56586708    0.89982862   -0.00006271   2     129  O
    0.56595059    0.89971755    0.25002706   2     130  O
    0.56597447    0.89968936    0.49995892   2     131  O
    0.56589434    0.89979073    0.75002340   2     132  O
    0.89932252    0.23266059   -0.00001450   2     133  O
    0.89936466    0.23262525    0.24999669   2     134  O
    0.89933860    0.23265075    0.50000407   2     135  O
    0.89936171    0.23262834    0.75000604   2     136  O
    0.89982870    0.56586709   -0.00006281   2     137  O
    0.89971752    0.56595068    0.25002708   2     138  O
    0.89968931    0.56597442    0.49995911   2     139  O
    0.89979075    0.56589429    0.75002334   2     140  O
    0.89952708    0.89952703   -0.00013709   2     141  O
    0.89968399    0.89968382    0.24972640   2     142  O
    0.89968988    0.89968985    0.50022059   2     143  O
    0.89954501    0.89954508    0.75013796   2     144  O
    0.06568030    0.26737001    0.12498831   2     145  O
    0.06572768    0.26740425    0.37499942   2     146  O
    0.06570853    0.26739548    0.62499843   2     147  O
    0.06570602    0.26739269    0.87499666   2     148  O
    0.06602216    0.60066874    0.12500322   2     149  O
    0.06612644    0.60061061    0.37499424   2     150  O
    0.06602957    0.60066516    0.62499531   2     151  O
    0.06617681    0.60063605    0.87498226   2     152  O
    0.06612036    0.93387938    0.12495555   2     153  O
    0.06595966    0.93404017    0.37497960   2     154  O
    0.06611912    0.93388111    0.62504846   2     155  O
    0.06612918    0.93387035    0.87499374   2     156  O
    0.39860329    0.26599486    0.12457057   2     157  O
    0.39900212    0.26667596    0.37491626   2     158  O
    0.39866266    0.26608041    0.62521276   2     159  O
    0.39897925    0.26661300    0.87493874   2     160  O
    0.39873967    0.60126026    0.12504456   2     161  O
    0.39797659    0.60202307    0.37499083   2     162  O
    0.39882291    0.60117712    0.62465784   2     163  O
    0.39900829    0.60099169    0.87498930   2     164  O
    0.39933135    0.93397780    0.12500323   2     165  O
    0.39938935    0.93387364    0.37499425   2     166  O
    0.39933488    0.93397037    0.62499536   2     167  O
    0.39936402    0.93382329    0.87498236   2     168  O
    0.73299885    0.26700129    0.12474101   2     169  O
    0.73328853    0.26671150    0.37493367   2     170  O
    0.73299363    0.26700654    0.62529195   2     171  O
    0.73283332    0.26716891    0.87489366   2     172  O
    0.73400527    0.60139654    0.12457049   2     173  O
    0.73332392    0.60099809    0.37491681   2     174  O
    0.73391971    0.60133734    0.62521299   2     175  O
    0.73338701    0.60102075    0.87493856   2     176  O
    0.73263029    0.93432015    0.12498822   2     177  O
    0.73259601    0.93427235    0.37499931   2     178  O
    0.73260459    0.93429149    0.62499878   2     179  O
    0.73260749    0.93429431    0.87499677   2     180  O
    0.26736980    0.06568040    0.12498828   2     181  O
    0.26740419    0.06572773    0.37499941   2     182  O
    0.26739542    0.06570851    0.62499875   2     183  O
    0.26739268    0.06570593    0.87499669   2     184  O
    0.26599480    0.39860335    0.12457047   2     185  O
    0.26667617    0.39900211    0.37491697   2     186  O
    0.26608047    0.39866268    0.62521282   2     187  O
    0.26661296    0.39897913    0.87493867   2     188  O
    0.26700111    0.73299902    0.12474094   2     189  O
    0.26671159    0.73328847    0.37493351   2     190  O
    0.26700632    0.73299383    0.62529191   2     191  O
    0.26716773    0.73283322    0.87489358   2     192  O
    0.60066874    0.06602205    0.12500317   2     193  O
    0.60061041    0.06612637    0.37499449   2     194  O
    0.60066508    0.06602955    0.62499537   2     195  O
    0.60063585    0.06617663    0.87498214   2     196  O
    0.60126000    0.39873990    0.12504502   2     197  O
    0.60202305    0.39797675    0.37499109   2     198  O
    0.60117673    0.39882332    0.62465760   2     199  O
    0.60099139    0.39900846    0.87498907   2     200  O
    0.60139642    0.73400512    0.12457050   2     201  O
    0.60099732    0.73332323    0.37491683   2     202  O
    0.60133746    0.73391953    0.62521275   2     203  O
    0.60102083    0.73338712    0.87493856   2     204  O
    0.93387933    0.06612031    0.12495537   2     205  O
    0.93404010    0.06595986    0.37497949   2     206  O
    0.93388095    0.06611916    0.62504841   2     207  O
    0.93387053    0.06612908    0.87499370   2     208  O
    0.93397791    0.39933131    0.12500317   2     209  O
    0.93387373    0.39938945    0.37499431   2     210  O
    0.93397043    0.39933497    0.62499523   2     211  O
    0.93382338    0.39936419    0.87498226   2     212  O
    0.93432017    0.73263029    0.12498817   2     213  O
    0.93427234    0.73259603    0.37499941   2     214  O
    0.93429166    0.73260481    0.62499888   2     215  O
    0.93429446    0.73260747    0.87499675   2     216  O

superc: Internal auxiliary supercell:     2 x     2 x     2  =       8
superc: Number of atoms, orbitals, and projectors:   1728  25920  29952

outcell: Unit cell vectors (Ang):
       13.782000    0.000000    0.000000
        0.000000   13.782000    0.000000
        0.000000    0.000000   11.836000

outcell: Cell vector modules (Ang)   :   13.782000   13.782000   11.836000
outcell: Cell angles (23,13,12) (deg):     90.0000     90.0000     90.0000
outcell: Cell volume (Ang**3)        :   2248.1716
New_DM. Step:     1
Initializing Density Matrix...

iodm: Reading Density Matrix from files

initdm: Initial spin polarization (Qup-Qdown) =    1.000019

InitMesh: MESH =   144 x   144 x   120 =     2488320
InitMesh: Mesh cutoff (required, used) =   250.000   284.089 Ry

doping: SimulateDoping = .true. in input file
doping: Neutralizing background will be added to points
doping: other than vacuum, to simulate doping

 Input, default information for hybrid DFT calculations

 Hybrid DFT :: HSE06
 Omega =    0.110
Schwarz tolerance = .1D-05
pairlist tolerance = .1D-05
Stored tolerance = .1D-05
Farfield tolerance =.1D-05
On_the_fly =   F
use_DM_trunc =   T
Farfield =   T
Dynamic parallel =   T
Dynamic tasksize =    50000
HFX.UseFittedNAOs                    T
HFX.FitDataPoints               500
HFX.MinimumNumberGaussians                  3
HFX.MaximumNumberGaussians                  5
HFX.SeparationExponents                 0.140E+01
HFX.ToleranceFit                 0.100E-02
HFX.GaussianEPS                 0.100E-04
 max_eri_prescreen   1.33869520263812     
 max0 =   0.919379976576488     
list_ij:        163416
list_kl:       1307328
max_eri 1.338695203
  1.000000000000000E-006  -6.00000000000000     
      163416     1307328          213638312448
 HFX time :    369.277515000000       s 
  Allreduce time ::    1026.23077400000       s 
  All HFX time ::    1034.18908300000       s 
 HFX energy:       -5717.546829  eV

* Maximum dynamic memory allocated =   320 MB

stepf: Fermi-Dirac step function

siesta: Program's energy decomposition (eV):
siesta: Ebs     =    -42555.648310
siesta: Eions   =    240677.852626
siesta: Ena     =     30030.143021
siesta: Ekin    =     91070.797979
siesta: Enl     =    -28884.071513
siesta: DEna    =     -1275.125730
siesta: DUscf   =       576.880232
siesta: DUext   =         0.000000
siesta: Exc     =    -27949.835495
siesta: eta*DQ  =         0.000000
siesta: Emadel  =         0.000000
siesta: Emeta   =         0.000000
siesta: Emolmec =         0.000000
siesta: Ekinion =         0.000000
siesta: Eharris =   -177109.077119
siesta: Etot    =   -177109.064132
siesta: FreeEng =   -177109.064132

siesta: iscf   Eharris(eV)      E_KS(eV)   FreeEng(eV)   dDmax  Ef(eV)
siesta:    1  -177109.0771  -177109.0641  -177109.0641  0.0003 -3.0118
timer: Routine,Calls,Time,% = IterSCF        1  418484.268  99.90
elaps: Routine,Calls,Wall,% = IterSCF        1    1092.474  99.89
      163416     1307328          213638312448
 HFX time :    369.571362000000       s 
  Allreduce time ::    369.859977000000       s 
  All HFX time ::    377.715362000000       s 
 HFX energy:       -5717.548873  eV
siesta:    2  -177109.0771  -177109.0771  -177109.0771  0.0001 -3.0117
      163416     1307328          213638312448
 HFX time :    368.244491000000       s 
  Allreduce time ::    368.531364000000       s 
  All HFX time ::    376.376995000000       s 
 HFX energy:       -5717.547593  eV
 To calculate HFX gradient
list_ij:        163416
list_kl:       1307328
      163416     1307328          213638312448
 HFX Force time :    103.617446000000       s 
  All Force time ::    110.378081000000       s

siesta: E_KS(eV) =          -177109.0689

siesta: E_KS - E_eggbox =   -177109.0689

siesta: Atomic forces (eV/Ang):
     1    0.000130    0.000033   -0.005212
     2   -0.000258   -0.000321   -0.007195
     3   -0.000135    0.000159    0.011166
     4   -0.000532   -0.000426   -0.000004
     5   -0.016241   -0.001626   -0.004529
     6   -0.013276    0.000197   -0.000948
     7   -0.011855    0.000085   -0.000374
     8   -0.015188   -0.002414    0.004015
     9    0.016347    0.001775   -0.004440
    10    0.013303   -0.000230   -0.000960
    11    0.011668   -0.000014   -0.000638
    12    0.015032    0.002862    0.003906
    13   -0.001715   -0.016065   -0.004372
    14    0.000280   -0.013248   -0.001220
    15    0.000016   -0.011868   -0.000496
    16   -0.002341   -0.015027    0.004393
    17   -0.108721   -0.108459   -0.029761
    18   -0.200909   -0.200811   -0.016272
    19   -0.172430   -0.171738    0.003427
    20   -0.119563   -0.119765    0.029849
    21   -0.013324    0.013576   -0.014283
    22   -0.038126    0.038289   -0.034599
    23   -0.023726    0.023745    0.029203
    24   -0.030040    0.030188    0.017074
    25    0.001440    0.016402   -0.004578
    26   -0.000251    0.013281   -0.001266
    27   -0.000304    0.011907    0.000033
    28    0.002406    0.015328    0.003367
    29    0.013374   -0.013424   -0.015349
    30    0.037974   -0.037965   -0.034803
    31    0.023923   -0.023560    0.028802
    32    0.031245   -0.031160    0.019028
    33    0.108525    0.108629   -0.029444
    34    0.200634    0.200816   -0.015970
    35    0.172342    0.172357    0.003702
    36    0.119505    0.119522    0.029547
    37   -0.043020   -0.042676   -0.016130
    38   -0.034307   -0.034326    0.021785
    39   -0.027279   -0.027005   -0.009127
    40   -0.040212   -0.040090   -0.005957
    41   -0.027266    0.021650   -0.004833
    42   -0.005287   -0.001700   -0.000887
    43   -0.028783    0.018065    0.003186
    44   -0.013067    0.011921   -0.001205
    45   -0.011569    0.011564   -0.003290
    46   -0.027540    0.027432   -0.000798
    47   -0.008557    0.008578    0.002390
    48   -0.003685    0.003686   -0.000154
    49    0.021439   -0.027079   -0.004986
    50   -0.001549   -0.005463   -0.000846
    51    0.019723   -0.030106    0.002983
    52    0.012082   -0.012836   -0.001551
    53    0.000182    0.000126   -0.416123
    54   -0.000066    0.000156   -0.027218
    55   -0.000349    0.000439    0.653950
    56   -0.000082    0.000023    0.046743
    57   -0.021526    0.027247   -0.004948
    58    0.001891    0.005078   -0.000896
    59   -0.018001    0.028656    0.003004
    60   -0.011846    0.013191   -0.001298
    61    0.011450   -0.011502   -0.003378
    62    0.027573   -0.027695   -0.000685
    63    0.008349   -0.008669    0.002263
    64    0.003400   -0.003458   -0.000190
    65    0.027217   -0.021468   -0.004649
    66    0.005272    0.001906   -0.000878
    67    0.028615   -0.017936    0.003176
    68    0.012713   -0.012135   -0.001490
    69    0.042677    0.042746   -0.012748
    70    0.034201    0.034308    0.020947
    71    0.027317    0.027587   -0.009201
    72    0.040351    0.040757   -0.006115
    73    0.072531    0.072528   -0.008325
    74    0.061063    0.061063    0.002684
    75    0.060802    0.060798   -0.010432
    76    0.069691    0.069717    0.019457
    77    0.042991    0.070843   -0.002685
    78    0.051526    0.066137    0.003874
    79    0.051411    0.065516   -0.004292
    80    0.043073    0.072513    0.002346
    81    0.034144    0.035127   -0.003066
    82    0.032790    0.037106   -0.000629
    83    0.033822    0.038369    0.000938
    84    0.032980    0.034102    0.002024
    85    0.070774    0.042871   -0.002687
    86    0.065961    0.051378    0.003939
    87    0.065519    0.051574   -0.004299
    88    0.072498    0.043048    0.002351
    89    0.132837    0.132846    0.123690
    90    0.113841    0.113805    0.277175
    91    0.095282    0.095162   -0.255547
    92    0.179112    0.179047   -0.142644
    93    0.029262    0.014295    0.004244
    94    0.020276    0.010880    0.002899
    95    0.024069    0.014942   -0.004958
    96    0.028696    0.018091    0.001349
    97    0.035279    0.034233   -0.002929
    98    0.037024    0.032760   -0.000588
    99    0.038423    0.033924    0.000878
   100    0.034050    0.032817    0.002082
   101    0.014475    0.029401    0.004409
   102    0.010838    0.020192    0.002782
   103    0.014978    0.024167   -0.004834
   104    0.018217    0.028811    0.001397
   105   -0.062926   -0.062925   -0.000047
   106   -0.117668   -0.117677    0.004184
   107   -0.091753   -0.091715   -0.009400
   108   -0.059450   -0.059467   -0.000199
   109    0.062592    0.062581    0.000634
   110    0.117497    0.117517    0.005101
   111    0.091581    0.091504   -0.009302
   112    0.059398    0.059491   -0.000287
   113   -0.014617   -0.029458    0.004320
   114   -0.010894   -0.020300    0.002760
   115   -0.014869   -0.024112   -0.005016
   116   -0.018049   -0.028642    0.001402
   117   -0.035144   -0.034185   -0.002973
   118   -0.037021   -0.032623   -0.000562
   119   -0.038268   -0.033707    0.000947
   120   -0.034075   -0.032828    0.001940
   121   -0.029289   -0.014401    0.004453
   122   -0.020274   -0.010881    0.002968
   123   -0.024330   -0.014990   -0.004975
   124   -0.028771   -0.018121    0.001494
   125   -0.132711   -0.132691    0.123849
   126   -0.113559   -0.113574    0.277009
   127   -0.095257   -0.095331   -0.255576
   128   -0.179237   -0.179273   -0.142633
   129   -0.070843   -0.043103   -0.002696
   130   -0.066052   -0.051406    0.003941
   131   -0.065644   -0.051543   -0.004222
   132   -0.072570   -0.043215    0.002540
   133   -0.034055   -0.035160   -0.002888
   134   -0.032657   -0.037011   -0.000715
   135   -0.033753   -0.038206    0.000878
   136   -0.032591   -0.033938    0.001959
   137   -0.042984   -0.070813   -0.002716
   138   -0.051324   -0.066009    0.003788
   139   -0.051392   -0.065520   -0.004305
   140   -0.042985   -0.072525    0.002314
   141   -0.072322   -0.072299   -0.009014
   142   -0.061171   -0.061221    0.002277
   143   -0.060661   -0.060690   -0.010439
   144   -0.069677   -0.069663    0.019462
   145   -0.015728    0.010298   -0.004520
   146   -0.020554    0.007975    0.000246
   147   -0.016815    0.008990    0.004005
   148   -0.016077    0.012246   -0.000270
   149   -0.018593    0.026035    0.001632
   150   -0.047570    0.055493    0.000855
   151   -0.019336    0.026054   -0.001642
   152   -0.037104    0.053163   -0.000734
   153   -0.058500    0.058507   -0.009603
   154   -0.029989    0.030092    0.001580
   155   -0.060917    0.060923    0.007641
   156   -0.056054    0.056143    0.002018
   157   -0.112690    0.025305    0.004823
   158   -0.067093    0.047248    0.000847
   159   -0.112132    0.019194   -0.000742
   160   -0.091302    0.045696    0.001051
   161    0.018323   -0.018305   -0.020181
   162    0.137814   -0.137822    0.001712
   163    0.009913   -0.009955    0.019070
   164   -0.021195    0.021216   -0.000571
   165   -0.026140    0.018545    0.001639
   166   -0.055406    0.047527    0.000920
   167   -0.026265    0.019448   -0.001734
   168   -0.053188    0.037061   -0.000838
   169   -0.070597    0.070545    0.026313
   170   -0.075244    0.075249   -0.006417
   171   -0.070952    0.070952   -0.020325
   172   -0.072801    0.072682   -0.006147
   173   -0.025327    0.112674    0.004616
   174   -0.047064    0.066870    0.000901
   175   -0.018989    0.111788   -0.001096
   176   -0.045665    0.091339    0.001082
   177   -0.010275    0.015548   -0.004464
   178   -0.008058    0.020539    0.000436
   179   -0.009251    0.017084    0.004151
   180   -0.012044    0.015881   -0.000173
   181    0.010530   -0.015845   -0.004543
   182    0.008041   -0.020570    0.000371
   183    0.009150   -0.016924    0.003846
   184    0.012266   -0.016098   -0.000390
   185    0.025474   -0.112897    0.004790
   186    0.047359   -0.067176    0.000794
   187    0.018906   -0.111825   -0.001115
   188    0.045835   -0.091301    0.001211
   189    0.070722   -0.070704    0.026074
   190    0.075384   -0.075325   -0.006382
   191    0.070635   -0.070689   -0.020330
   192    0.072515   -0.072495   -0.005612
   193    0.026288   -0.018639    0.001718
   194    0.055258   -0.047250    0.000749
   195    0.025898   -0.019057   -0.001616
   196    0.053066   -0.037096   -0.000667
   197   -0.018175    0.018164   -0.019914
   198   -0.137533    0.137440    0.001754
   199   -0.010107    0.009984    0.018497
   200    0.021248   -0.021289   -0.000314
   201    0.112836   -0.025510    0.004648
   202    0.067016   -0.047203    0.000886
   203    0.111809   -0.018933   -0.000898
   204    0.091406   -0.045862    0.001067
   205    0.058469   -0.058449   -0.009494
   206    0.030082   -0.030000    0.001648
   207    0.061054   -0.061017    0.007515
   208    0.056097   -0.056004    0.002048
   209    0.018648   -0.026228    0.001552
   210    0.047378   -0.055335    0.000757
   211    0.019542   -0.026346   -0.001667
   212    0.037092   -0.053179   -0.000788
   213    0.015597   -0.010360   -0.004526
   214    0.020678   -0.008196    0.000591
   215    0.017136   -0.009412    0.004004
   216    0.016163   -0.012464   -0.000342
----------------------------------------
   Tot    0.001037    0.000069    0.204503
----------------------------------------
   Max    0.653950
   Res    0.061967    sqrt( Sum f_i^2 / 3N )
----------------------------------------
   Max    0.653950    constrained

Stress-tensor-Voigt (kbar):     -517.02     -517.02     -679.71       -1.36        0.00        0.00
(Free)E + p*V (eV/cell)  -176307.5021
Target enthalpy (eV/cell)  -177109.0689

* Maximum dynamic memory allocated =  1989 MB

coxmol: Writing XMOL coordinates into file tio2.xyz                                                        
Writing WFSX for selected k-points in tio2.selected.WFSX
 
writewave: Wave Functions Coefficients
 
     Number of k-points =        1
        Number of Spins =        2
   Number of basis orbs =     3240
 
 
                                                                  ******
            k-point =        1    0.000000  0.000000  0.000000
     Spin component =        1
 Num. wavefunctions =        3
Use readwfsx utility to print wavefunction coefficients from WFSX file
 
                                                                  ******
            k-point =        1    0.000000  0.000000  0.000000
     Spin component =        2
 Num. wavefunctions =        3
Use readwfsx utility to print wavefunction coefficients from WFSX file
Computing bands...

siesta: Eigenvalues (eV):
  ik is    eps
   1  1 -67.14 -67.14 -67.14 -67.14 -67.14 -67.13 -67.13 -67.13 -67.13 -67.13
        -67.13 -67.13 -67.13 -67.13 -67.12 -67.12 -67.12 -67.12 -67.12 -67.12
        -67.12 -67.12 -67.11 -67.11 -67.11 -67.11 -67.11 -67.11 -67.11 -67.11
        -67.11 -67.10 -67.10 -67.10 -67.10 -67.10 -67.10 -67.10 -67.10 -67.10
        -67.10 -67.10 -67.10 -67.09 -67.09 -67.09 -67.09 -67.09 -67.09 -67.09
        -67.09 -67.09 -67.09 -67.09 -67.08 -67.08 -67.08 -67.07 -67.07 -67.07
        -67.07 -67.07 -67.06 -67.06 -67.05 -67.05 -67.04 -67.04 -67.02 -66.89
        -66.87 -65.69 -42.13 -42.13 -42.12 -42.12 -42.12 -42.12 -42.11 -42.11
        -42.11 -42.11 -42.11 -42.11 -42.09 -42.08 -42.08 -42.07 -42.07 -42.00
        -42.00 -42.00 -42.00 -41.99 -41.99 -41.99 -41.99 -41.99 -41.99 -41.98
        -41.98 -41.97 -41.96 -41.95 -41.94 -41.94 -41.90 -41.86 -41.86 -41.86
        -41.86 -41.86 -41.86 -41.85 -41.84 -41.84 -41.84 -41.83 -41.83 -41.83
        -41.83 -41.83 -41.83 -41.83 -41.82 -41.82 -41.82 -41.82 -41.82 -41.82
        -41.82 -41.82 -41.81 -41.80 -41.80 -41.80 -41.80 -41.80 -41.80 -41.79
        -41.79 -41.79 -41.79 -41.79 -41.79 -41.79 -41.79 -41.78 -41.78 -41.78
        -41.78 -41.78 -41.78 -41.77 -41.77 -41.77 -41.77 -41.77 -41.77 -41.76
        -41.76 -41.76 -41.76 -41.76 -41.75 -41.75 -41.75 -41.75 -41.75 -41.75
        -41.74 -41.74 -41.74 -41.74 -41.74 -41.74 -41.74 -41.74 -41.74 -41.73
        -41.73 -41.73 -41.73 -41.73 -41.73 -41.73 -41.73 -41.73 -41.73 -41.73
        -41.73 -41.72 -41.72 -41.72 -41.72 -41.72 -41.72 -41.71 -41.71 -41.71
        -41.71 -41.71 -41.71 -41.71 -41.70 -41.70 -41.70 -41.70 -41.70 -41.70
        -41.70 -41.70 -41.70 -41.70 -41.70 -41.69 -41.69 -41.69 -41.69 -41.69
        -41.69 -41.69 -41.69 -41.69 -41.69 -41.69 -41.69 -41.69 -41.69 -41.69
        -41.69 -41.68 -41.68 -41.68 -41.68 -41.68 -41.68 -41.68 -41.68 -41.68
        -41.68 -41.68 -41.68 -41.68 -41.67 -41.67 -41.67 -41.67 -41.67 -41.67
        -41.67 -41.67 -41.67 -41.67 -41.67 -41.66 -41.66 -41.66 -41.66 -41.66
        -41.66 -41.66 -41.66 -41.66 -41.66 -41.66 -41.65 -41.65 -41.65 -41.65
        -41.64 -41.64 -41.64 -41.64 -41.63 -41.62 -41.62 -41.62 -41.61 -41.61
        -41.58 -41.54 -41.52 -41.51 -41.50 -40.55 -40.50 -40.40 -25.84 -25.66
        -25.62 -25.52 -25.51 -25.37 -25.33 -25.31 -25.29 -25.28 -25.24 -25.23
        -25.21 -25.09 -25.06 -25.03 -25.03 -25.02 -25.00 -24.98 -24.97 -24.95
        -24.95 -24.91 -24.90 -24.86 -24.85 -24.84 -24.79 -24.77 -24.77 -24.77
        -24.76 -24.75 -24.72 -24.72 -24.72 -24.72 -24.71 -24.70 -24.70 -24.70
        -24.69 -24.69 -24.67 -24.65 -24.65 -24.62 -24.62 -24.61 -24.61 -24.59
        -24.59 -24.59 -24.58 -24.57 -24.57 -24.55 -24.53 -24.52 -24.51 -24.47
        -24.46 -24.45 -24.44 -24.44 -24.43 -24.42 -24.42 -24.40 -24.37 -24.37
        -24.33 -24.33 -24.31 -24.29 -24.29 -24.28 -24.28 -24.28 -24.28 -24.26
        -24.25 -24.24 -24.24 -24.24 -24.24 -24.23 -24.22 -24.21 -24.21 -24.21
        -24.21 -24.20 -24.20 -24.19 -24.19 -24.19 -24.19 -24.19 -24.18 -24.18
        -24.17 -24.17 -24.17 -24.16 -24.16 -24.15 -24.14 -24.14 -24.14 -24.14
        -24.13 -24.13 -24.13 -24.11 -24.11 -24.10 -24.09 -24.09 -24.08 -24.08
        -24.06 -24.05 -24.05 -24.05 -24.04 -24.04 -24.04 -24.03 -24.02 -24.02
        -24.01 -24.01 -24.01 -24.00 -24.00 -23.99 -23.97 -23.95 -23.93 -23.89
        -23.89 -23.89 -12.16 -11.99 -11.98 -11.90 -11.87 -11.83 -11.81 -11.76
        -11.72 -11.63 -11.62 -11.60 -11.53 -11.50 -11.48 -11.46 -11.45 -11.43
        -11.42 -11.41 -11.39 -11.38 -11.38 -11.36 -11.36 -11.32 -11.31 -11.30
        -11.27 -11.27 -11.26 -11.25 -11.18 -11.17 -11.16 -11.15 -11.15 -11.14
        -11.13 -11.12 -11.12 -11.11 -11.11 -11.10 -11.10 -11.08 -11.07 -11.06
        -11.06 -11.04 -11.04 -11.02 -11.02 -11.01 -10.98 -10.97 -10.96 -10.94
        -10.94 -10.94 -10.91 -10.91 -10.90 -10.89 -10.89 -10.88 -10.86 -10.86
        -10.84 -10.81 -10.80 -10.80 -10.79 -10.78 -10.77 -10.76 -10.76 -10.76
        -10.75 -10.75 -10.74 -10.74 -10.74 -10.73 -10.73 -10.72 -10.71 -10.71
        -10.70 -10.68 -10.67 -10.66 -10.65 -10.65 -10.65 -10.64 -10.63 -10.63
        -10.63 -10.60 -10.59 -10.59 -10.59 -10.57 -10.56 -10.55 -10.55 -10.53
        -10.52 -10.51 -10.50 -10.50 -10.48 -10.47 -10.46 -10.46 -10.45 -10.45
        -10.44 -10.42 -10.40 -10.39 -10.39 -10.39 -10.37 -10.35 -10.34 -10.34
        -10.33 -10.27 -10.26 -10.26 -10.23 -10.23 -10.20 -10.19 -10.17 -10.14
        -10.13 -10.11 -10.08 -10.08 -10.07 -10.07 -10.07 -10.05 -10.05 -10.00
        -10.00  -9.98  -9.98  -9.98  -9.97  -9.97  -9.96  -9.95  -9.93  -9.85
         -9.85  -9.84  -9.83  -9.82  -9.82  -9.80  -9.79  -9.78  -9.76  -9.74
         -9.74  -9.72  -9.67  -9.63  -9.61  -9.60  -9.59  -9.56  -9.56  -9.55
         -9.54  -9.53  -9.51  -9.47  -9.44  -9.42  -9.41  -9.40  -9.37  -9.35
         -9.34  -9.33  -9.31  -9.29  -9.28  -9.27  -9.27  -9.25  -9.23  -9.21
         -9.20  -9.19  -9.18  -9.15  -9.14  -9.13  -9.13  -9.12  -9.11  -9.10
         -9.09  -9.08  -9.06  -9.05  -9.01  -9.00  -8.99  -8.98  -8.96  -8.96
         -8.94  -8.92  -8.92  -8.91  -8.90  -8.87  -8.86  -8.82  -8.81  -8.80
         -8.77  -8.76  -8.74  -8.74  -8.72  -8.71  -8.70  -8.69  -8.69  -8.69
         -8.68  -8.65  -8.65  -8.64  -8.64  -8.64  -8.63  -8.61  -8.60  -8.59
         -8.57  -8.56  -8.56  -8.55  -8.54  -8.54  -8.52  -8.51  -8.51  -8.49
         -8.49  -8.48  -8.48  -8.46  -8.46  -8.45  -8.45  -8.43  -8.42  -8.40
         -8.37  -8.37  -8.36  -8.34  -8.34  -8.33  -8.32  -8.30  -8.26  -8.23
         -8.21  -8.20  -8.19  -8.18  -8.17  -8.16  -8.14  -8.14  -8.14  -8.12
         -8.11  -8.10  -8.06  -8.06  -8.05  -8.05  -8.04  -8.02  -8.01  -8.00
         -7.99  -7.99  -7.99  -7.98  -7.98  -7.95  -7.94  -7.93  -7.92  -7.91
         -7.91  -7.91  -7.90  -7.80  -7.76  -7.76  -7.74  -7.72  -7.72  -7.71
         -7.70  -7.69  -7.68  -7.68  -7.68  -7.67  -7.65  -7.65  -7.64  -7.63
         -7.62  -7.61  -7.61  -7.58  -7.57  -7.56  -7.56  -7.55  -7.55  -7.53
         -7.53  -7.52  -7.52  -7.51  -7.49  -7.47  -7.46  -7.45  -7.45  -7.44
         -7.42  -7.42  -7.41  -7.41  -7.40  -7.40  -7.37  -7.35  -7.33  -7.33
         -7.27  -7.26  -7.26  -7.25  -7.20  -7.18  -7.16  -7.14  -7.09  -7.09
         -7.09  -7.08  -7.08  -7.07  -7.07  -7.06  -7.05  -7.03  -7.00  -6.98
         -6.98  -6.96  -6.96  -6.95  -6.94  -6.94  -6.93  -6.92  -6.92  -6.91
         -6.90  -6.90  -6.89  -6.87  -6.86  -6.83  -6.80  -6.80  -6.79  -6.79
         -6.71  -6.71  -6.69  -6.68  -6.67  -6.67  -6.67  -6.67  -6.66  -6.65
         -6.65  -6.65  -6.64  -6.64  -6.63  -6.63  -6.54  -6.54  -6.52  -6.50
         -6.48  -6.46  -6.45  -6.44  -6.39  -6.37  -6.36  -6.26  -6.23  -6.21
         -6.06  -6.04  -6.03  -5.82  -3.47  -2.51  -2.48  -2.46  -2.44  -2.40
         -2.32  -2.32  -2.31  -2.29  -2.28  -2.27  -2.27  -2.26  -2.26  -2.22
         -2.22  -2.21  -2.19  -2.18  -2.15  -2.15  -2.14  -2.12  -2.09  -2.08
         -2.06  -2.05  -2.02  -2.02  -2.01  -2.00  -2.00  -1.99  -1.99  -1.99
         -1.98  -1.96  -1.95  -1.94  -1.92  -1.92  -1.90  -1.89  -1.89  -1.88
         -1.86  -1.86  -1.84  -1.83  -1.83  -1.83  -1.83  -1.82  -1.81  -1.81
         -1.81  -1.80  -1.78  -1.78  -1.77  -1.77  -1.76  -1.76  -1.75  -1.72
         -1.71  -1.69  -1.69  -1.68  -1.65  -1.65  -1.64  -1.63  -1.63  -1.61
         -1.60  -1.60  -1.58  -1.58  -1.56  -1.55  -1.54  -1.54  -1.52  -1.51
         -1.49  -1.47  -1.47  -1.46  -1.46  -1.45  -1.45  -1.44  -1.42  -1.40
         -1.40  -1.39  -1.39  -1.38  -1.37  -1.36  -1.35  -1.35  -1.34  -1.33
         -1.32  -1.31  -1.30  -1.29  -1.28  -1.28  -1.27  -1.24  -1.23  -1.20
         -1.19  -1.18  -1.17  -1.16  -1.16  -1.15  -1.15  -1.14  -1.14  -1.13
         -1.13  -1.13  -1.12  -1.11  -1.09  -1.09  -1.08  -1.07  -1.07  -1.07
         -1.06  -1.05  -1.05  -1.05  -1.04  -1.03  -1.02  -1.02  -1.01  -1.01
         -1.00  -0.99  -0.99  -0.98  -0.97  -0.96  -0.94  -0.94  -0.93  -0.93
         -0.91  -0.89  -0.88  -0.86  -0.84  -0.82  -0.81  -0.80  -0.79  -0.78
         -0.78  -0.77  -0.75  -0.75  -0.74  -0.74  -0.72  -0.70  -0.67  -0.65
         -0.64  -0.57  -0.57  -0.56  -0.55  -0.54  -0.52  -0.51  -0.49  -0.48
         -0.46  -0.44  -0.43  -0.43  -0.42  -0.42  -0.40  -0.38  -0.38  -0.36
         -0.35  -0.35  -0.34  -0.34  -0.33  -0.30  -0.29  -0.27  -0.27  -0.25
         -0.25  -0.13  -0.12  -0.11  -0.05   0.03   0.09   0.13   0.20   0.28
          0.42   0.48   0.49   0.50   0.53   0.54   0.55   0.56   0.61   0.63
          0.64   0.64   0.64   0.65   0.68   0.70   0.71   0.73   0.77   0.78
          0.80   0.82   0.87   0.88   0.88   0.90   0.91   0.96   1.01   1.02
          1.04   1.05   1.09   1.13   1.16   1.16   1.17   1.17   1.18   1.19
          1.21   1.23   1.27   1.34   1.37   1.38   1.38   1.39   1.39   1.41
          1.43   1.46   1.49   1.51   1.52   1.55   1.58   1.63   1.63   1.64
          1.64   1.65   1.66   1.69   1.69   1.70   1.72   1.74   1.75   1.78
          1.79   1.80   1.81   1.81   1.82   1.85   1.86   1.87   1.88   1.89
          1.89   1.90   1.90   1.91   1.92   1.94   1.95   1.99   2.00   2.05
          2.09   2.10   2.11   2.11   2.13   2.15   2.16   2.16   2.17   2.19
[...]
* Maximum dynamic memory allocated : Node  131 =  1989 MB
* Maximum dynamic memory allocated : Node  132 =  1984 MB
* Maximum dynamic memory allocated : Node  133 =  1986 MB
* Maximum dynamic memory allocated : Node  134 =  1984 MB
* Maximum dynamic memory allocated : Node  135 =  1985 MB
* Maximum dynamic memory allocated : Node  136 =  1986 MB
* Maximum dynamic memory allocated : Node  137 =  1985 MB
* Maximum dynamic memory allocated : Node  138 =  1986 MB
* Maximum dynamic memory allocated : Node  139 =  1984 MB
* Maximum dynamic memory allocated : Node  140 =  1986 MB
* Maximum dynamic memory allocated : Node  141 =  1984 MB
* Maximum dynamic memory allocated : Node  142 =  1986 MB
* Maximum dynamic memory allocated : Node  143 =  1984 MB
* Maximum dynamic memory allocated : Node  144 =  1989 MB
* Maximum dynamic memory allocated : Node  145 =  1987 MB
* Maximum dynamic memory allocated : Node  146 =  1989 MB
* Maximum dynamic memory allocated : Node  147 =  1987 MB
* Maximum dynamic memory allocated : Node  148 =  1989 MB
* Maximum dynamic memory allocated : Node  149 =  1987 MB
* Maximum dynamic memory allocated : Node  150 =  1989 MB
* Maximum dynamic memory allocated : Node  151 =  1987 MB
* Maximum dynamic memory allocated : Node  152 =  1989 MB
* Maximum dynamic memory allocated : Node  153 =  1989 MB
* Maximum dynamic memory allocated : Node  154 =  1988 MB
* Maximum dynamic memory allocated : Node  155 =  1988 MB
* Maximum dynamic memory allocated : Node  156 =  1987 MB
* Maximum dynamic memory allocated : Node  157 =  1985 MB
* Maximum dynamic memory allocated : Node  158 =  1986 MB
* Maximum dynamic memory allocated : Node  159 =  1986 MB
* Maximum dynamic memory allocated : Node  160 =  1986 MB
* Maximum dynamic memory allocated : Node  161 =  1985 MB
* Maximum dynamic memory allocated : Node  162 =  1986 MB
* Maximum dynamic memory allocated : Node  163 =  1986 MB
* Maximum dynamic memory allocated : Node  164 =  1985 MB
* Maximum dynamic memory allocated : Node  165 =  1986 MB
* Maximum dynamic memory allocated : Node  166 =  1986 MB
* Maximum dynamic memory allocated : Node  167 =  1985 MB
* Maximum dynamic memory allocated : Node  168 =  1988 MB
* Maximum dynamic memory allocated : Node  169 =  1989 MB
* Maximum dynamic memory allocated : Node  170 =  1988 MB
* Maximum dynamic memory allocated : Node  171 =  1988 MB
* Maximum dynamic memory allocated : Node  172 =  1989 MB
* Maximum dynamic memory allocated : Node  173 =  1988 MB
* Maximum dynamic memory allocated : Node  174 =  1988 MB
* Maximum dynamic memory allocated : Node  175 =  1989 MB
* Maximum dynamic memory allocated : Node  176 =  1989 MB
* Maximum dynamic memory allocated : Node  177 =  1988 MB
* Maximum dynamic memory allocated : Node  178 =  1988 MB
* Maximum dynamic memory allocated : Node  179 =  1989 MB
* Maximum dynamic memory allocated : Node  180 =  1985 MB
* Maximum dynamic memory allocated : Node  181 =  1986 MB
* Maximum dynamic memory allocated : Node  182 =  1986 MB
* Maximum dynamic memory allocated : Node  183 =  1985 MB
* Maximum dynamic memory allocated : Node  184 =  1986 MB
* Maximum dynamic memory allocated : Node  185 =  1986 MB
* Maximum dynamic memory allocated : Node  186 =  1986 MB
* Maximum dynamic memory allocated : Node  187 =  1985 MB
* Maximum dynamic memory allocated : Node  188 =  1986 MB
* Maximum dynamic memory allocated : Node  189 =  1986 MB
* Maximum dynamic memory allocated : Node  190 =  1985 MB
* Maximum dynamic memory allocated : Node  191 =  1986 MB
* Maximum dynamic memory allocated : Node  192 =  1988 MB
* Maximum dynamic memory allocated : Node  193 =  1986 MB
* Maximum dynamic memory allocated : Node  194 =  1987 MB
* Maximum dynamic memory allocated : Node  195 =  1987 MB
* Maximum dynamic memory allocated : Node  196 =  1986 MB
* Maximum dynamic memory allocated : Node  197 =  1987 MB
* Maximum dynamic memory allocated : Node  198 =  1987 MB
* Maximum dynamic memory allocated : Node  199 =  1987 MB
* Maximum dynamic memory allocated : Node  200 =  1986 MB
* Maximum dynamic memory allocated : Node  201 =  1987 MB
* Maximum dynamic memory allocated : Node  202 =  1987 MB
* Maximum dynamic memory allocated : Node  203 =  1986 MB
* Maximum dynamic memory allocated : Node  204 =  1985 MB
* Maximum dynamic memory allocated : Node  205 =  1985 MB
* Maximum dynamic memory allocated : Node  206 =  1984 MB
* Maximum dynamic memory allocated : Node  207 =  1984 MB
* Maximum dynamic memory allocated : Node  208 =  1985 MB
* Maximum dynamic memory allocated : Node  209 =  1984 MB
* Maximum dynamic memory allocated : Node  210 =  1984 MB
* Maximum dynamic memory allocated : Node  211 =  1985 MB
* Maximum dynamic memory allocated : Node  212 =  1985 MB
* Maximum dynamic memory allocated : Node  213 =  1984 MB
* Maximum dynamic memory allocated : Node  214 =  1984 MB
* Maximum dynamic memory allocated : Node  215 =  1985 MB
* Maximum dynamic memory allocated : Node  216 =  1986 MB
* Maximum dynamic memory allocated : Node  217 =  1987 MB
* Maximum dynamic memory allocated : Node  218 =  1988 MB
* Maximum dynamic memory allocated : Node  219 =  1986 MB
* Maximum dynamic memory allocated : Node  220 =  1987 MB
* Maximum dynamic memory allocated : Node  221 =  1987 MB
* Maximum dynamic memory allocated : Node  222 =  1986 MB
* Maximum dynamic memory allocated : Node  223 =  1987 MB
* Maximum dynamic memory allocated : Node  224 =  1987 MB
* Maximum dynamic memory allocated : Node  225 =  1987 MB
* Maximum dynamic memory allocated : Node  226 =  1986 MB
* Maximum dynamic memory allocated : Node  227 =  1987 MB
* Maximum dynamic memory allocated : Node  228 =  1985 MB
* Maximum dynamic memory allocated : Node  229 =  1984 MB
* Maximum dynamic memory allocated : Node  230 =  1984 MB
* Maximum dynamic memory allocated : Node  231 =  1985 MB
* Maximum dynamic memory allocated : Node  232 =  1984 MB
* Maximum dynamic memory allocated : Node  233 =  1984 MB
* Maximum dynamic memory allocated : Node  234 =  1985 MB
* Maximum dynamic memory allocated : Node  235 =  1984 MB
* Maximum dynamic memory allocated : Node  236 =  1984 MB
* Maximum dynamic memory allocated : Node  237 =  1984 MB
* Maximum dynamic memory allocated : Node  238 =  1984 MB
* Maximum dynamic memory allocated : Node  239 =  1984 MB
* Maximum dynamic memory allocated : Node  240 =  1987 MB
* Maximum dynamic memory allocated : Node  241 =  1987 MB
* Maximum dynamic memory allocated : Node  242 =  1986 MB
* Maximum dynamic memory allocated : Node  243 =  1987 MB
* Maximum dynamic memory allocated : Node  244 =  1988 MB
* Maximum dynamic memory allocated : Node  245 =  1986 MB
* Maximum dynamic memory allocated : Node  246 =  1987 MB
* Maximum dynamic memory allocated : Node  247 =  1988 MB
* Maximum dynamic memory allocated : Node  248 =  1986 MB
* Maximum dynamic memory allocated : Node  249 =  1987 MB
* Maximum dynamic memory allocated : Node  250 =  1987 MB
* Maximum dynamic memory allocated : Node  251 =  1987 MB
* Maximum dynamic memory allocated : Node  252 =  1984 MB
* Maximum dynamic memory allocated : Node  253 =  1985 MB
* Maximum dynamic memory allocated : Node  254 =  1985 MB
* Maximum dynamic memory allocated : Node  255 =  1984 MB
* Maximum dynamic memory allocated : Node  256 =  1984 MB
* Maximum dynamic memory allocated : Node  257 =  1985 MB
* Maximum dynamic memory allocated : Node  258 =  1984 MB
* Maximum dynamic memory allocated : Node  259 =  1984 MB
* Maximum dynamic memory allocated : Node  260 =  1985 MB
* Maximum dynamic memory allocated : Node  261 =  1984 MB
* Maximum dynamic memory allocated : Node  262 =  1984 MB
* Maximum dynamic memory allocated : Node  263 =  1985 MB
* Maximum dynamic memory allocated : Node  264 =  1987 MB
* Maximum dynamic memory allocated : Node  265 =  1986 MB
* Maximum dynamic memory allocated : Node  266 =  1987 MB
* Maximum dynamic memory allocated : Node  267 =  1987 MB
* Maximum dynamic memory allocated : Node  268 =  1986 MB
* Maximum dynamic memory allocated : Node  269 =  1987 MB
* Maximum dynamic memory allocated : Node  270 =  1988 MB
* Maximum dynamic memory allocated : Node  271 =  1986 MB
* Maximum dynamic memory allocated : Node  272 =  1987 MB
* Maximum dynamic memory allocated : Node  273 =  1988 MB
* Maximum dynamic memory allocated : Node  274 =  1986 MB
* Maximum dynamic memory allocated : Node  275 =  1987 MB
* Maximum dynamic memory allocated : Node  276 =  1985 MB
* Maximum dynamic memory allocated : Node  277 =  1984 MB
* Maximum dynamic memory allocated : Node  278 =  1984 MB
* Maximum dynamic memory allocated : Node  279 =  1985 MB
* Maximum dynamic memory allocated : Node  280 =  1985 MB
* Maximum dynamic memory allocated : Node  281 =  1984 MB
* Maximum dynamic memory allocated : Node  282 =  1984 MB
* Maximum dynamic memory allocated : Node  283 =  1985 MB
* Maximum dynamic memory allocated : Node  284 =  1984 MB
* Maximum dynamic memory allocated : Node  285 =  1984 MB
* Maximum dynamic memory allocated : Node  286 =  1985 MB
* Maximum dynamic memory allocated : Node  287 =  1984 MB
* Maximum dynamic memory allocated : Node  288 =  1987 MB
* Maximum dynamic memory allocated : Node  289 =  1987 MB
* Maximum dynamic memory allocated : Node  290 =  1987 MB
* Maximum dynamic memory allocated : Node  291 =  1986 MB
* Maximum dynamic memory allocated : Node  292 =  1987 MB
* Maximum dynamic memory allocated : Node  293 =  1987 MB
* Maximum dynamic memory allocated : Node  294 =  1986 MB
* Maximum dynamic memory allocated : Node  295 =  1987 MB
* Maximum dynamic memory allocated : Node  296 =  1988 MB
* Maximum dynamic memory allocated : Node  297 =  1986 MB
* Maximum dynamic memory allocated : Node  298 =  1987 MB
* Maximum dynamic memory allocated : Node  299 =  1987 MB
* Maximum dynamic memory allocated : Node  300 =  1984 MB
* Maximum dynamic memory allocated : Node  301 =  1984 MB
* Maximum dynamic memory allocated : Node  302 =  1985 MB
* Maximum dynamic memory allocated : Node  303 =  1984 MB
* Maximum dynamic memory allocated : Node  304 =  1984 MB
* Maximum dynamic memory allocated : Node  305 =  1985 MB
* Maximum dynamic memory allocated : Node  306 =  1985 MB
* Maximum dynamic memory allocated : Node  307 =  1984 MB
* Maximum dynamic memory allocated : Node  308 =  1985 MB
* Maximum dynamic memory allocated : Node  309 =  1985 MB
* Maximum dynamic memory allocated : Node  310 =  1983 MB
* Maximum dynamic memory allocated : Node  311 =  1984 MB
* Maximum dynamic memory allocated : Node  312 =  1987 MB
* Maximum dynamic memory allocated : Node  313 =  1986 MB
* Maximum dynamic memory allocated : Node  314 =  1987 MB
* Maximum dynamic memory allocated : Node  315 =  1987 MB
* Maximum dynamic memory allocated : Node  316 =  1987 MB
* Maximum dynamic memory allocated : Node  317 =  1986 MB
* Maximum dynamic memory allocated : Node  318 =  1987 MB
* Maximum dynamic memory allocated : Node  319 =  1987 MB
* Maximum dynamic memory allocated : Node  320 =  1986 MB
* Maximum dynamic memory allocated : Node  321 =  1987 MB
* Maximum dynamic memory allocated : Node  322 =  1988 MB
* Maximum dynamic memory allocated : Node  323 =  1986 MB
* Maximum dynamic memory allocated : Node  324 =  1984 MB
* Maximum dynamic memory allocated : Node  325 =  1985 MB
* Maximum dynamic memory allocated : Node  326 =  1984 MB
* Maximum dynamic memory allocated : Node  327 =  1984 MB
* Maximum dynamic memory allocated : Node  328 =  1985 MB
* Maximum dynamic memory allocated : Node  329 =  1984 MB
* Maximum dynamic memory allocated : Node  330 =  1984 MB
* Maximum dynamic memory allocated : Node  331 =  1984 MB
* Maximum dynamic memory allocated : Node  332 =  1985 MB
* Maximum dynamic memory allocated : Node  333 =  1984 MB
* Maximum dynamic memory allocated : Node  334 =  1985 MB
* Maximum dynamic memory allocated : Node  335 =  1985 MB
* Maximum dynamic memory allocated : Node  336 =  1986 MB
* Maximum dynamic memory allocated : Node  337 =  1987 MB
* Maximum dynamic memory allocated : Node  338 =  1987 MB
* Maximum dynamic memory allocated : Node  339 =  1986 MB
* Maximum dynamic memory allocated : Node  340 =  1987 MB
* Maximum dynamic memory allocated : Node  341 =  1987 MB
* Maximum dynamic memory allocated : Node  342 =  1987 MB
* Maximum dynamic memory allocated : Node  343 =  1987 MB
* Maximum dynamic memory allocated : Node  344 =  1987 MB
* Maximum dynamic memory allocated : Node  345 =  1987 MB
* Maximum dynamic memory allocated : Node  346 =  1986 MB
* Maximum dynamic memory allocated : Node  347 =  1987 MB
* Maximum dynamic memory allocated : Node  348 =  1985 MB
* Maximum dynamic memory allocated : Node  349 =  1984 MB
* Maximum dynamic memory allocated : Node  350 =  1984 MB
* Maximum dynamic memory allocated : Node  351 =  1985 MB
* Maximum dynamic memory allocated : Node  352 =  1984 MB
* Maximum dynamic memory allocated : Node  353 =  1984 MB
* Maximum dynamic memory allocated : Node  354 =  1985 MB
* Maximum dynamic memory allocated : Node  355 =  1984 MB
* Maximum dynamic memory allocated : Node  356 =  1984 MB
* Maximum dynamic memory allocated : Node  357 =  1985 MB
* Maximum dynamic memory allocated : Node  358 =  1985 MB
* Maximum dynamic memory allocated : Node  359 =  1984 MB
* Maximum dynamic memory allocated : Node  360 =  2144 MB
* Maximum dynamic memory allocated : Node  361 =  2144 MB
* Maximum dynamic memory allocated : Node  362 =  2144 MB
* Maximum dynamic memory allocated : Node  363 =  2144 MB
* Maximum dynamic memory allocated : Node  364 =  2144 MB
* Maximum dynamic memory allocated : Node  365 =  2144 MB
* Maximum dynamic memory allocated : Node  366 =  2144 MB
* Maximum dynamic memory allocated : Node  367 =  2144 MB
* Maximum dynamic memory allocated : Node  368 =  2144 MB
* Maximum dynamic memory allocated : Node  369 =  2144 MB
* Maximum dynamic memory allocated : Node  370 =  2144 MB
* Maximum dynamic memory allocated : Node  371 =  2144 MB
* Maximum dynamic memory allocated : Node  372 =  2142 MB
* Maximum dynamic memory allocated : Node  373 =  2148 MB
* Maximum dynamic memory allocated : Node  374 =  2148 MB
* Maximum dynamic memory allocated : Node  375 =  2148 MB
* Maximum dynamic memory allocated : Node  376 =  2148 MB
* Maximum dynamic memory allocated : Node  377 =  2148 MB
* Maximum dynamic memory allocated : Node  378 =  2148 MB
* Maximum dynamic memory allocated : Node  379 =  2148 MB
* Maximum dynamic memory allocated : Node  380 =  2148 MB
* Maximum dynamic memory allocated : Node  381 =  2148 MB
* Maximum dynamic memory allocated : Node  382 =  2148 MB
* Maximum dynamic memory allocated : Node  383 =  2148 MB

* Maximum memory occured during update_hfx                    

timer: CPU execution times:
timer:  Routine       Calls   Time/call    Tot.time        %
timer:  siesta            1 1347796.311 1347796.311   100.00
timer:  Setup             1     218.462     218.462     0.02
timer:  bands             3   66671.670  200015.011    14.84
timer:  writewave         3     581.698    1745.093     0.13
timer:  KSV_init          1       0.352       0.352     0.00
timer:  IterMD            1  775049.995  775049.995    57.50
timer:  hsparse           1      15.323      15.323     0.00
timer:  overlap           1      66.552      66.552     0.00
timer:  IterSCF           2  291003.970  582007.940    43.18
timer:  kinefsm           2      32.316      64.632     0.00
timer:  nlefsm            2     473.284     946.567     0.07
timer:  DHSCF             5  215966.364 1079831.819    80.12
timer:  DHSCF1            1      40.539      40.539     0.00
timer:  DHSCF2            1    1543.837    1543.837     0.11
timer:  REORD            69       0.005       0.355     0.00
timer:  POISON            6       1.798      10.789     0.00
timer:  DHSCF3            5    2849.411   14247.057     1.06
timer:  rhoofd            5     247.600    1238.002     0.09
timer:  cellXC            5      14.800      73.999     0.01
timer:  vmat              3    4052.755   12158.265     0.90
timer:  DHFX              5  204167.186 1020835.931    75.74
timer:  HFX               5  150911.250  754556.248    55.98
timer:  MolMec            2       0.021       0.042     0.00
timer:  diagon            3   13880.659   41641.976     3.09
timer:  c-eigval        266     828.722  220440.175    16.36
timer:  c-buildHS       266       0.271      71.989     0.01
timer:  cdiag           300     831.074  249322.212    18.50
timer:  cdiag1          300      13.981    4194.194     0.31
timer:  cdiag2          300     537.168  161150.468    11.96
timer:  cdiag3          300     273.541   82062.223     6.09
timer:  cdiag4          300       2.944     883.255     0.07
timer:  c-eigvec         26     847.688   22039.878     1.64
timer:  c-buildD         24      37.583     901.991     0.07
timer:  DHSCF4            1     634.400     634.400     0.05
timer:  dfscf             1     546.822     546.822     0.04
timer:  DFHFX             1   42527.069   42527.069     3.16
timer:  HFX_gradie        1       0.000       0.000     0.00
timer:  HFX_gradie        0    Infinity  775319.621    57.52
timer:  overfsm           1       2.824       2.824     0.00
timer:  pdos              1   19047.949   19047.949     1.41
timer:  optical           1       0.371       0.371     0.00
  

elaps: ELAPSED times:
elaps:  Routine       Calls   Time/call    Tot.time        %
elaps:  siesta            1    3518.367    3518.367   100.00
elaps:  Setup             1       0.619       0.619     0.02
elaps:  bands             3     174.108     522.323    14.85
elaps:  writewave         3       1.514       4.543     0.13
elaps:  KSV_init          1       0.001       0.001     0.00
elaps:  IterMD            1    2023.238    2023.238    57.51
elaps:  hsparse           1       0.040       0.040     0.00
elaps:  overlap           1       0.123       0.123     0.00
elaps:  IterSCF           2     759.666    1519.332    43.18
elaps:  kinefsm           2       0.058       0.116     0.00
elaps:  nlefsm            2       1.194       2.388     0.07
elaps:  DHSCF             5     563.639    2818.196    80.10
elaps:  DHSCF1            1       0.106       0.106     0.00
elaps:  DHSCF2            1       4.033       4.033     0.11
elaps:  REORD            69       0.000       0.001     0.00
elaps:  POISON            6       0.005       0.031     0.00
elaps:  DHSCF3            5       7.439      37.194     1.06
elaps:  rhoofd            5       0.883       4.417     0.13
elaps:  cellXC            5       0.039       0.194     0.01
elaps:  vmat              3      10.579      31.736     0.90
elaps:  DHFX              5     532.826    2664.132    75.72
elaps:  HFX               5     392.938    1964.690    55.84
elaps:  MolMec            2       0.000       0.000     0.00
elaps:  diagon            3      36.336     109.009     3.10
elaps:  c-eigval        266       2.164     575.743    16.36
elaps:  c-buildHS       266       0.001       0.222     0.01
elaps:  cdiag           300       2.170     651.127    18.51
elaps:  cdiag1          300       0.037      10.970     0.31
elaps:  cdiag2          300       1.402     420.704    11.96
elaps:  cdiag3          300       0.714     214.179     6.09
elaps:  cdiag4          300       0.008       2.311     0.07
elaps:  c-eigvec         26       2.214      57.554     1.64
elaps:  c-buildD         24       0.096       2.299     0.07
elaps:  DHSCF4            1       2.035       2.035     0.06
elaps:  dfscf             1       1.807       1.807     0.05
elaps:  DFHFX             1     110.686     110.686     3.15
elaps:  HFX_gradie        1       0.000       0.000     0.00
elaps:  HFX_gradie        0    Infinity    2023.183    57.50
elaps:  overfsm           1       0.007       0.007     0.00
elaps:  pdos              1      56.710      56.710     1.61
elaps:  optical           1       0.001       0.001     0.00
  
>> End of run:  28-MAY-2023  23:10:03
