Siesta Version  : v4.1-b4-351
Architecture    : x86_64-linux-n-62-26-19
Compiler version: GNU Fortran (GCC) 9.3.0
Compiler flags  : mpifort -m64 -fPIC -O3 -march=native -ftree-vectorize -fexpensive-optimizatioons -funroll-loops -fprefetch-loop-arrays -fno-second-underscore  -flto
PP flags        : -I/dtu/sw/dcc/SL73/2020-aug/generic/build-tools/1.0/include -I/dtu/sw/dcc/SL773/2020-aug/generic/gcc/9.3.0/include -I/dtu/sw/dcc/SL73/2020-aug/generic/gcc/9.3.0/include -I/dtu/sw/dcc/SL73/2020-aug/XeonE5-2660v3/gnu/9.3.0/zlib/1.2.11/include -I/dtu/sw/dcc/SL73/2020-aug/generic/numactl/2.0.12/include -I/dtu/sw/dcc/SL73/2020-aug/XeonE5-2660v3/gnu/9.3.0/libxml2/2.9.10/include -I/dtu/sw/dcc/SL73/2020-aug/XeonE5-2660v3/gnu/9.3.0/hwloc/2.2.0/include -I/dtu/sw/dcc/SL73/2020-aug/XeonE5-2660v3/gnu/9.3.0/knem/1.1.4/include -I/dtu/sw/dcc/SL73/2020-aug/XeonE5-2660v3/gnu/9.3.0/ucx/1.8.1/include -I/dtu/sw/dcc/SL73/2020-aug/XeonE5-2660v3/gnu/9.3.0/openmpi/4.0.4/include -I/dtu/sw/dcc/SL73/2020-aug/XeonE5-2660v3/gnu/9.3.0/szip/2.1.1/include -I/dtu/sw/dcc/SL73/2020-aug/XeonE5-2660v3/gnu/9.3.0/hdf5/1.12.0/include -I/dtu/sw/dcc/SL73/2020-aug/XeonE5-2660v3/gnu/9.3.0/pnetcdf/1.12.1/include -I/dtu/sw/dcc/SL73/2020-aug/generic/gen-zlib/1.2.11/include -I/dtu/sw/dcc/SL73/2020-aug/generic/openssl/1.1.1/include -I/dtu/sw/dcc/SL73/2020-aug/generic/libssh2/1.8.2/include -I/dtu/sw/dcc/SL73/2020-aug/generic/curl/7.65.1/include -I/dtu/sw/dcc/SL73/2020-aug/XeonE5-2660v3/gnu/9.3.0/netcdf/4.7.4/include -I/dtu/sw/dcc/SL73/2020-aug/XeonE5-2660v3/gnu/9.3.0/flook/0.8.1/include -I/dtu/sw/dcc/SL73/2020-aug/XeonE5-2660v3/gnu/9.3.0/fftw/3.3.8/include -I/dtu/sw/dcc/SL73/2020-aug/XeonE5-2660v3/gnu/9.3.0/parmetis/4.0.3/include -I/dtu/sw/dcc/SL73/2020-aug/XeonE5-2660v3/gnu/9.3.0/scalapack/2.1.0/include -I/dtu/sw/dcc/SL73/2020-aug/XeonE5-2660v3/gnu/9.3.0/lapack/3.9.0/include -I/dtu/sw/dcc/SL73/2020-aug/XeonE5-2660v3/gnu/9.3.0/blis/0.7.0/include -I/dtu/sw/dcc/SL73/2020-aug/XeonE5-2660v3/gnu/9.3.0/scotch/6.0.9/include -I/dtu/sw/dcc/SL73/2020-aug/XeonE5-2660v3/gnu/9.3.0/mumps/5.3.3/include -I/dtu/sw/dcc/SL73/2020-aug/XeonE5-2660v3/gnu/9.3.0/elpa/2020.05.001/include -DSIESTA__ELPA -DMPI -DFC_HAVE_FLUSH -DFC_HAVE_ABORT -DCDF -DCDF4 -DSIESTA__FLOOK  -DNCDF -DNCDF_4 -DNCDF_PARALLEL -DTS_NOCHECKS -DSIESTA__METIS -DSIESTA__MUMPS -DSIESTA__MRRR -I/dtu/sw/dcc/SL73/2020-aug/XeonE5-2660v3/gnu/9.3.0/elpa/2020.05.001/include/elpa
Libraries       : libncdf.a libfdict.a -lnetcdff -lnetcdf -lpnetcdf -lhdf5_hl -lhdf5 -lz  -lzmuumps -lmumps_common -lesmumps -lscotch -lscotcherr -lpord -lparmetis -lmetis -lelpa -lscalapack -llapack -lblis  -L/dtu/sw/dcc/SL73/2020-aug/XeonE5-2660v3/gnu/9.3.0/flook/0.8.1/lib -Wl,-rpath=/dtu/sw/dcc/SL73/2020-aug/XeonE5-2660v3/gnu/9.3.0/flook/0.8.1/lib -lflookall -ldl  -flto -fuse-linker-plugin  -lmetis
PARALLEL version
NetCDF support
NetCDF-4 support
NetCDF-4 MPI-IO support
METIS ordering support
Lua support

* Running on 8 nodes in parallel
>> Start of run:  22-JAN-2021  23:37:07

                           ***********************       
                           *  WELCOME TO SIESTA  *       
                           ***********************       

reinit: Reading from au_111_capacitor.fdf

reinit: -----------------------------------------------------------------------
reinit: System Name: au_111_capacitor
reinit: -----------------------------------------------------------------------
reinit: System Label: au_111_capacitor
reinit: -----------------------------------------------------------------------

initatom: Reading input for the pseudopotentials and atomic orbitals ----------
Species number:   1 Atomic number:   79 Label: Au

Ground state valence configuration:   6s01  5d10
Reading pseudopotential information in formatted form from Au.psf

Pseudopotential generated from a relativistic atomic calculation

Valence configuration for pseudopotential generation:
6s( 1.00) rc: 2.32
6p( 0.00) rc: 2.32
5d(10.00) rc: 2.32
5f( 0.00) rc: 2.32
For Au, standard SIESTA heuristics set lmxkb to 3
 (one more than the basis l, including polarization orbitals).
Use PS.lmax or PS.KBprojectors blocks to override.
Au: nkbl increased for l=1 due to the presence of a polarization orbital

<basis_specs>
===============================================================================
Au                   Z=  79    Mass=  196.97        Charge= 0.17977+309
Lmxo=2 Lmxkb= 3    BasisType=split      Semic=F
L=0  Nsemic=0  Cnfigmx=6
          i=1  nzeta=1  polorb=1  (6s)
            splnorm:   0.15000    
               vcte:    0.0000    
               rinn:    0.0000    
               qcoe:    0.0000    
               qyuk:    0.0000    
               qwid:   0.10000E-01
                rcs:    0.0000    
            lambdas:    1.0000    
L=1  Nsemic=0  Cnfigmx=6
L=2  Nsemic=0  Cnfigmx=5
          i=1  nzeta=1  polorb=0  (5d)
            splnorm:   0.15000    
               vcte:    0.0000    
               rinn:    0.0000    
               qcoe:    0.0000    
               qyuk:    0.0000    
               qwid:   0.10000E-01
                rcs:    0.0000    
            lambdas:    1.0000    
-------------------------------------------------------------------------------
L=0  Nkbl=1  erefs: 0.17977+309
L=1  Nkbl=2  erefs: 0.17977+309 0.17977+309
L=2  Nkbl=1  erefs: 0.17977+309
L=3  Nkbl=1  erefs: 0.17977+309
===============================================================================
</basis_specs>

atom: Called for Au                    (Z =  79)

read_vps: Pseudopotential generation method:
read_vps: ATM3      Troullier-Martins                       
Valence charge for ps generation:   11.00000

xc_check: Exchange-correlation functional:
xc_check: Ceperley-Alder
V l=0 = -2*Zval/r beyond r=  3.7361
V l=1 = -2*Zval/r beyond r=  3.7361
V l=2 = -2*Zval/r beyond r=  3.7361
V l=3 = -2*Zval/r beyond r=  3.7361
All V_l potentials equal beyond r=  2.2946
This should be close to max(r_c) in ps generation
All pots = -2*Zval/r beyond r=  3.7361
Using large-core scheme for Vlocal

atom: Estimated core radius    3.73611

atom: Including non-local core corrections could be a good idea
atom: Maximum radius for 4*pi*r*r*local-pseudopot. charge    4.07775
atom: Maximum radius for r*vlocal+2*Zval:    3.78310
GHOST: No ghost state for L =  0
KBgen: More than one KB projector for l=  1
KBgen: ghost states analysis will be not performed
GHOST: No ghost state for L =  2
GHOST: No ghost state for L =  3

KBgen: Kleinman-Bylander projectors: 
   l= 0   rc=  2.382235   el= -0.445645   Ekb=  4.511922   kbcos=  0.274440
   l= 1   rc=  2.382235   el= -0.065316   Ekb=  2.560647   kbcos=  0.223707
   l= 1   rc=  2.382235   el=  0.001421   Ekb=  2.131832   kbcos=  0.034244
   l= 2   rc=  2.382235   el= -0.526293   Ekb= -5.024070   kbcos= -0.676934
   l= 3   rc=  2.382235   el=  0.003438   Ekb= -2.070042   kbcos= -0.013117

KBgen: Total number of  Kleinman-Bylander projectors:   19
atom: -------------------------------------------------------------------------

atom: SANKEY-TYPE ORBITALS:

SPLIT: Orbitals with angular momentum L= 0

SPLIT: Basis orbitals for state 6s

SPLIT: PAO cut-off radius determined from an
SPLIT: energy shift=  0.005000 Ry

   izeta = 1
                 lambda =    1.000000
                     rc =    7.246712
                 energy =   -0.441368
                kinetic =    0.367640
    potential(screened) =   -0.809008
       potential(ionic) =   -8.408267

SPLIT: Orbitals with angular momentum L= 2

SPLIT: Basis orbitals for state 5d

SPLIT: PAO cut-off radius determined from an
SPLIT: energy shift=  0.005000 Ry

   izeta = 1
                 lambda =    1.000000
                     rc =    5.106662
                 energy =   -0.521343
                kinetic =    4.852314
    potential(screened) =   -5.373657
       potential(ionic) =  -16.114240

POLgen: Perturbative polarization orbital with L=  1

POLgen: Polarization orbital for state 6s

   izeta = 1
                     rc =    7.246712
                 energy =   -0.107868
                kinetic =    0.647525
    potential(screened) =   -0.755394
       potential(ionic) =   -7.869443
atom: Total number of Sankey-type orbitals:  9

atm_pop: Valence configuration (for local Pseudopot. screening):
 6s( 1.00)                                                            
 6p( 0.00)                                                            
 5d(10.00)                                                            
Vna: chval, zval:   11.00000  11.00000

Vna:  Cut-off radius for the neutral-atom potential:   7.246712

atom: _________________________________________________________________________

prinput: Basis input ----------------------------------------------------------

PAO.BasisType split     

%block ChemicalSpeciesLabel
    1   79 Au                      # Species index, atomic number, species label
%endblock ChemicalSpeciesLabel

%block PAO.Basis                 # Define Basis set
Au                    2                    # Species label, number of l-shells
 n=6   0   1 P   1                   # n, l, Nzeta, Polarization, NzetaPol
   7.247   
   1.000   
 n=5   2   1                         # n, l, Nzeta 
   5.107   
   1.000   
%endblock PAO.Basis

prinput: ----------------------------------------------------------------------

Dumping basis to NetCDF file Au.ion.nc
coor:   Atomic-coordinates input format  =     Cartesian coordinates
coor:                                          (in units of alat)

siesta: WARNING: XV file not found

siesta: Atomic coordinates (Bohr) and species
siesta:      0.00000   0.00000   0.00000  1        1
siesta:      2.76194   1.59461   4.51023  1        2
siesta:      2.76194  -1.59461   9.02046  1        3
siesta:      0.00000   0.00000  13.53069  1        4
siesta:      2.76194   1.59461  18.04092  1        5
siesta:      2.76194   1.59461  36.08183  1        6
siesta:      2.76194  -1.59461  40.59206  1        7
siesta:      0.00000   0.00000  45.10229  1        8
siesta:      2.76194   1.59461  49.61252  1        9
siesta:      2.76194  -1.59461  54.12275  1       10

siesta: System type = bulk      

initatomlists: Number of atoms, orbitals, and projectors:     10    90   190

coxmol: Writing XMOL coordinates into file au_111_capacitor.xyz                                                

siesta: ******************** Simulation parameters ****************************
siesta:
siesta: The following are some of the parameters of the simulation.
siesta: A complete list of the parameters used, including default values,
siesta: can be found in file out.fdf
siesta:
redata: Spin configuration                          = none
redata: Number of spin components                   = 1
redata: Time-Reversal Symmetry                      = T
redata: Spin spiral                                 = F
redata: Long output                                 =   F
redata: Number of Atomic Species                    =        1
redata: Charge density info will appear in .RHO file
redata: Write Mulliken Pop.                         = Atomic and Orbital charges
redata: Matel table size (NRTAB)                    =     1024
redata: Mesh Cutoff                                 =   350.0000 Ry
redata: Net charge of the system                    =     0.0000 |e|
redata: Min. number of SCF Iter                     =        0
redata: Max. number of SCF Iter                     =      300
redata: SCF convergence failure will abort job
redata: SCF mix quantity                            = Hamiltonian
redata: Mix DM or H after convergence               =   F
redata: Recompute H after scf cycle                 =   F
redata: Mix DM in first SCF step                    =   T
redata: Write Pulay info on disk                    =   F
redata: New DM Occupancy tolerance                  = 0.000000000001
redata: No kicks to SCF
redata: DM Mixing Weight for Kicks                  =     0.5000
redata: Require Harris convergence for SCF          =   F
redata: Harris energy tolerance for SCF             =     0.000100 eV
redata: Require DM convergence for SCF              =   T
redata: DM tolerance for SCF                        =     0.000100
redata: Require EDM convergence for SCF             =   F
redata: EDM tolerance for SCF                       =     0.001000 eV
redata: Require H convergence for SCF               =   T
redata: Hamiltonian tolerance for SCF               =     0.001000 eV
redata: Require (free) Energy convergence for SCF   =   F
redata: (free) Energy tolerance for SCF             =     0.000100 eV
redata: Using Saved Data (generic)                  =   F
redata: Use continuation files for DM               =   T
redata: Neglect nonoverlap interactions             =   F
redata: Method of Calculation                       = Transiesta
redata: Fix the spin of the system                  =   F
redata: Dynamics option                             = Single-point calculation
mix.SCF: Pulay mixing                            = Pulay
mix.SCF:    Variant                              = stable
mix.SCF:    History steps                        = 5
mix.SCF:    Linear mixing weight                 =     0.030000
mix.SCF:    Mixing weight                        =     0.030000
mix.SCF:    SVD condition                        = 0.1000E-07
redata: Save all siesta data in one NC              =   F
redata: ***********************************************************************

%block SCF.Mixers
  Pulay
%endblock SCF.Mixers

%block SCF.Mixer.Pulay
  # Mixing method
  method pulay
  variant stable

  # Mixing options
  weight 0.0300
  weight.linear 0.0300
  history 5
%endblock SCF.Mixer.Pulay

DM_history_depth set to one: no extrapolation allowed by default for geometry relaxation
Size of DM history Fstack: 1
Total number of electrons:   110.000000
Total ionic charge:   110.000000

* ProcessorY, Blocksize:    2  12


* Orbital distribution balance (max,min):    12     6

k-point displ. along   1 input, could be:     0.00    0.50
k-point displ. along   2 input, could be:     0.00    0.50
 Kpoints in:          960 . Kpoints trimmed:          960

siesta: k-grid: Number of k-points =   960
siesta: k-grid: Cutoff (effective) =    11.692 Ang
siesta: k-grid: Supercell and displacements
siesta: k-grid:    8   0   0      0.000
siesta: k-grid:    0   8   0      0.000
siesta: k-grid:    0   0  30      0.500

diag: Algorithm                                     = Expert
diag: Parallel over k                               =   T
diag: Use parallel 2D distribution                  =   T
diag: Parallel block-size                           = 12
diag: Parallel distribution                         =     2 x     4
diag: Used triangular part                          = Lower
diag: Absolute tolerance                            =  0.100E-15
diag: Orthogonalization factor                      =  0.100E-05
diag: Memory factor                                 =  1.0000

superc: Internal auxiliary supercell:     9 x     9 x     3  =     243
superc: Number of atoms, orbitals, and projectors:   2430  21870  46170

k-point displ. along   1 input, could be:     0.00    0.50
k-point displ. along   2 input, could be:     0.00    0.50
 Kpoints in:           40 . Kpoints trimmed:           37

transiesta: k-grid: Number of Green function k-points =    37
transiesta: k-grid: Supercell and displacements
transiesta: k-grid:    8   0   0      0.000
transiesta: k-grid:    0   8   0      0.000
transiesta: k-grid:    0   0   1      0.000

ts: **************************************************************
ts: Voltage                                         =    1.0000 Volts
ts: Save H and S matrices                           =    T
ts: Electronic temperature                          =   99.999269 K
ts: Transport along unit-cell vector                =    A3
ts: Transport along Cartesian vector                =    Z
ts: Fixing Hartree potential at cell boundary       =    -C
ts: Fix Hartree potential fraction                  =    1.0000
ts: Hartree potential offset                        =    0.000000 eV
ts: Solution method                                 =    BTD
ts: BTD pivoting method                             =    atom+Left
ts: BTD creation algorithm                          =    speed
ts: BTD spectral function algorithm                 =    propagation
ts: SCF DM tolerance                                = 0.100E-03
ts: SCF Hamiltonian tolerance                       =    0.001000 eV
ts: SCF converge charge                             =    T
ts: SCF charge tolerance                            = 0.110E+00
ts: Initialize DM by                                =    diagon
ts: Hartree potential ramp across entire cell
ts: Non-equilibrium contour weight method           =    orb-orb
ts: Non-equilibrium contour weight k-method         =    Correlated k-points
ts: Will not correct charge fluctuations
ts: TS.SCF mixing options same as SCF
ts:           >> Electrodes << 
ts: >> Left
ts:   Electrode cell pivoting: E1, E2, E3           = A1, A2, A3
ts:   GF file                                       = au_111_capacitor.TSGFLeft
ts:   Reuse existing GF-file                        =    T
ts:   Electrode TSHS file                           = ./elec_au_111_abc.TSHS
ts:   # atoms used in electrode                     =    3
ts:   Electrode Bloch unity [E1 x E2 x E3]          = 1 x 1 x 1
ts:   Position in geometry                          = 1 -- 3
ts:   Semi-infinite direction for electrode         = negative wrt. E3
ts:   Chemical shift                                =    0.499999 eV
ts:   Electronic temperature                        =   99.999269 K
ts:   Gamma-only electrode                          =    F
ts:   Bulk H, S in electrode region                 =    T
ts:   Initial DM for electrodes                     = diagon
ts:   Cross-terms are not updated
ts:   Manual delta-Ef shift                         =    0.000000 eV
ts:   Hamiltonian E-C bias fractional shift         =    0.0000
ts:   Electrode self-energy imaginary Eta           =  0.1000E-03 eV
ts:   Electrode self-energy accuracy                =  0.1000E-12 eV
ts:   Electrode inter-layer distance (semi-inf)     =    2.3867 Ang
ts: >> Right
ts:   Electrode cell pivoting: E1, E2, E3           = A1, A2, A3
ts:   GF file                                       = au_111_capacitor.TSGFRight
ts:   Reuse existing GF-file                        =    T
ts:   Electrode TSHS file                           = ./elec_au_111_abc.TSHS
ts:   # atoms used in electrode                     =    3
ts:   Electrode Bloch unity [E1 x E2 x E3]          = 1 x 1 x 1
ts:   Position in geometry                          = 8 -- 10
ts:   Semi-infinite direction for electrode         = positive wrt. E3
ts:   Chemical shift                                =   -0.499999 eV
ts:   Electronic temperature                        =   99.999269 K
ts:   Gamma-only electrode                          =    F
ts:   Bulk H, S in electrode region                 =    T
ts:   Initial DM for electrodes                     = diagon
ts:   Cross-terms are not updated
ts:   Manual delta-Ef shift                         =    0.000000 eV
ts:   Hamiltonian E-C bias fractional shift         =    0.0000
ts:   Electrode self-energy imaginary Eta           =  0.1000E-03 eV
ts:   Electrode self-energy accuracy                =  0.1000E-12 eV
ts:   Electrode inter-layer distance (semi-inf)     =    2.3867 Ang
ts:  ----------------- Contour ----------------- 
ts:            >> Residual contour << 
ts: Pole chemical potential                         =    0.5000 eV
ts:    Chemical potential temperature               =   99.9993 K
ts:    Number of poles                              =   47
ts:    Top energy point                             =    2.5448 eV
ts: Pole chemical potential                         =   -0.5000 eV
ts:    Chemical potential temperature               =   99.9993 K
ts:    Number of poles                              =   47
ts:    Top energy point                             =    2.5448 eV
ts:          >> Equilibrium contour << 
ts: Contour name                                    =    TS.Contour.c-Left
ts:   circle contour E_min                          =  -39.5000 eV
ts:   circle contour E_max                          =    0.4138 eV
ts:   circle contour points                         =   30
ts:   circle contour method                         =    Gauss-Legendre
ts: Contour name                                    =    TS.Contour.t-Left
ts:   tail contour E_min                            =    0.4138 eV
ts:   tail contour E_max                            =     Infinity
ts:   tail contour points                           =   10
ts:   tail contour method                           =    Gauss-Fermi (0kT)
ts: Contour name                                    =    TS.Contour.c-Right
ts:   circle contour E_min                          =  -40.5000 eV
ts:   circle contour E_max                          =   -0.5862 eV
ts:   circle contour points                         =   30
ts:   circle contour method                         =    Gauss-Legendre
ts: Contour name                                    =    TS.Contour.t-Right
ts:   tail contour E_min                            =   -0.5862 eV
ts:   tail contour E_max                            =     Infinity
ts:   tail contour points                           =   10
ts:   tail contour method                           =    Gauss-Fermi (0kT)
ts:         >> non-Equilibrium contour << 
ts: Device Green function imaginary Eta             =  0.000     eV
ts: Fermi-function cut-off                          =  5.000     kT
ts: Contour name                                    =    TS.Contour.nEq.neq
ts:   line contour E_min                            =   -0.5431 eV
ts:   line contour E_max                            =    0.5431 eV
ts:   line contour points                           =  109
ts:   line contour method                           =    Mid-rule
ts: **************************************************************

************************ Begin: TS CHECKS AND WARNINGS ************************
Without loosing performance you can increase the equilibrium integration precision.
You can add 2 more energy points in the equilibrium contours, for FREE!
This is 1 more energy points per chemical potential.
Without loosing performance you can increase the non-equilibrium integration precision.
You can add 3 more energy points in the non-equilibrium contours, for FREE!
Electrode Left will not update cross-terms or local region.
Electrode Right will not update cross-terms or local region.
************************ End: TS CHECKS AND WARNINGS **************************

                  ****************************************
                   TRANSIESTA REPORTED IMPORTANT WARNINGS
                  ****************************************

>>> TranSiesta block information for FDF-file START <<<

%block TS.ChemPots
  Left
  Right
%endblock TS.ChemPots

%block TS.ChemPot.Left
  mu  V/2
  contour.eq
   begin
    c-Left
    t-Left
   end
%endblock TS.ChemPot.Left
%block TS.ChemPot.Right
  mu  - V/2
  contour.eq
   begin
    c-Right
    t-Right
   end
%endblock TS.ChemPot.Right
%block TS.Contour.c-Left
  part circle
     from -40.00000 eV + V/2 to -10. kT + V/2
      points 30
        method g-legendre
%endblock TS.Contour.c-Left
%block TS.Contour.t-Left
  part tail
     from prev to + inf
      points 10
        method g-fermi
%endblock TS.Contour.t-Left
%block TS.Contour.c-Right
  part circle
     from -40.00000 eV - V/2 to -10. kT - V/2
      points 30
        method g-legendre
%endblock TS.Contour.c-Right
%block TS.Contour.t-Right
  part tail
     from prev to + inf
      points 10
        method g-fermi
%endblock TS.Contour.t-Right
%block TS.Contours.nEq
    neq
%endblock TS.Contours.nEq

%block TS.Contour.nEq.neq
  part line
     from - |V|/2 - 5 kT to |V|/2 + 5 kT
      delta 0.01 eV
        method mid-rule
%endblock TS.Contour.nEq.neq

>>> TranSiesta block information for FDF-file END <<<


transiesta: Regions of atoms:
   ## (3): Elec.Left
     [ 1 -- 3 ]
   ## (3): Elec.Right
     [ 8 -- 10 ]
   -- (4): Device
     [ 4 -- 7 ]

  <sparsity:./elec_au_111_abc.TSHS
    nrows_g=27 nrows=27 sparsity=44.2757 nnzs=32277, refcount: 3>
  <sparsity:(TM [--,--, 0] of: ./elec_au_111_abc.TSHS)
    nrows_g=27 nrows=27 sparsity=25.1152 nnzs=18309, refcount: 3>
  <sparsity:(TM [--,--,-1] of: ./elec_au_111_abc.TSHS)
    nrows_g=27 nrows=27 sparsity=9.4486 nnzs=6888, refcount: 3>
 Left principal cell is extending out with 96 elements:
    Atom 1 connects with atom 3
    Orbital 8 connects with orbital 26
    Hamiltonian value: |H(8,7046)|@R=-2 =  0.102E-18 eV
    Overlap          :  S(8,7046)|@R=-2 =   0.00    

Calculating all surface Green functions for: Left
 Fermi level shift in electrode (chemical potential) :        0.50000  eV
 Atoms available    / used atoms   :      3 /      3
 Orbitals available / used orbitals:     27 /     27
 Total self-energy calculations: 10471
 Saving surface Green functions in: au_111_capacitor.TSGFLeft
 Estimated file size:    117.299 MB
 Lopez Sancho, Lopez Sancho & Rubio recursive surface self-energy calculation...
 Lopez Sancho, Lopez Sancho & Rubio: Mean/std iterations:     8.1083 /     6.0231
 Lopez Sancho, Lopez Sancho & Rubio: Min/Max iterations :          3 /         19
Done creating 'au_111_capacitor.TSGFLeft'.

  <sparsity:./elec_au_111_abc.TSHS
    nrows_g=27 nrows=27 sparsity=44.2757 nnzs=32277, refcount: 3>
  <sparsity:(TM [--,--, 0] of: ./elec_au_111_abc.TSHS)
    nrows_g=27 nrows=27 sparsity=25.1152 nnzs=18309, refcount: 3>
  <sparsity:(TM [--,--, 1] of: ./elec_au_111_abc.TSHS)
    nrows_g=27 nrows=27 sparsity=9.4486 nnzs=6888, refcount: 3>
 Right principal cell is extending out with 96 elements:
    Atom 3 connects with atom 1
    Orbital 26 connects with orbital 8
    Hamiltonian value: |H(26,6353)|@R=2 =  0.102E-18 eV
    Overlap          :  S(26,6353)|@R=2 =   0.00    

Calculating all surface Green functions for: Right
 Fermi level shift in electrode (chemical potential) :       -0.50000  eV
 Atoms available    / used atoms   :      3 /      3
 Orbitals available / used orbitals:     27 /     27
 Total self-energy calculations: 10471
 Saving surface Green functions in: au_111_capacitor.TSGFRight
 Estimated file size:    117.299 MB
 Lopez Sancho, Lopez Sancho & Rubio recursive surface self-energy calculation...
 Lopez Sancho, Lopez Sancho & Rubio: Mean/std iterations:     9.4612 /     6.5413
 Lopez Sancho, Lopez Sancho & Rubio: Min/Max iterations :          3 /         19
Done creating 'au_111_capacitor.TSGFRight'.


                     ====================================
                        Single-point calculation
                     ====================================

superc: Internal auxiliary supercell:     9 x     9 x     3  =     243
superc: Number of atoms, orbitals, and projectors:   2430  21870  46170

outcell: Unit cell vectors (Ang):
        2.923110    0.000000    0.000000
        1.461555    2.531488    0.000000
        0.000000    0.000000   31.027221

outcell: Cell vector modules (Ang)   :    2.923110    2.923110   31.027221
outcell: Cell angles (23,13,12) (deg):     90.0000     90.0000     60.0000
outcell: Cell volume (Ang**3)        :    229.5957
<dSpData1D:S at geom step 0
  <sparsity:sparsity for geom step 0
    nrows_g=90 nrows=12 sparsity=1.7328 nnzs=14036, refcount: 7>
  <dData1D:(new from dSpData1D) n=14036, refcount: 1>
refcount: 1>
new_DM -- step:     1
Initializing Density Matrix...

Attempting to read DM, EDM from TSDE file... Failed...
Attempting to read DM from file... Failed...
DM filled with atomic data:
<dSpData2D:DM initialized from atoms
  <sparsity:sparsity for geom step 0
    nrows_g=90 nrows=12 sparsity=1.7328 nnzs=14036, refcount: 8>
  <dData2D:DM n=14036 m=1, refcount: 1>
refcount: 1>

transiesta: Initialization run using siesta

ts: We highly recommend you to perform 0-bias calculations before *any* bias calculations

No. of atoms with KB's overlaping orbs in proc 0. Max # of overlaps:      60     237
New grid distribution:   1
           1       1:   15    1:    8    1:   45
           2       1:   15    1:    8   46:   90
           3       1:   15    1:    8   91:  135
           4       1:   15    1:    8  136:  180
           5       1:   15    9:   15    1:   45
           6       1:   15    9:   15   46:   90
           7       1:   15    9:   15   91:  135
           8       1:   15    9:   15  136:  180

InitMesh: MESH =    30 x    30 x   360 =      324000
InitMesh: (bp) =    15 x    15 x   180 =       40500
InitMesh: Mesh cutoff (required, used) =   350.000   372.067 Ry
ExtMesh (bp) on 0 =   107 x   100 x   137 =     1465900
New grid distribution:   2
           1       1:   15    1:   15  149:  164
           2       1:   15    1:   15   49:  115
           3       1:   15    1:   15    1:   16
           4       1:   15    1:   15  133:  148
           5       1:   15    1:   15   17:   32
           6       1:   15    1:   15   33:   48
           7       1:   15    1:   15  116:  132
           8       1:   15    1:   15  165:  180
New grid distribution:   3
           1       1:   15    1:   15    1:   21
           2       1:   15    1:   15   64:   96
           3       1:   15    1:   15   97:  117
           4       1:   15    1:   15  139:  159
           5       1:   15    1:   15   22:   42
           6       1:   15    1:   15   43:   63
           7       1:   15    1:   15  118:  138
           8       1:   15    1:   15  160:  180
Setting up quadratic distribution...
ExtMesh (bp) on 0 =   107 x   107 x   108 =     1236492
PhiOnMesh: Number of (b)points on node 0 =                 3600
PhiOnMesh: nlist on node 0 =               294085

ts-voltage: Ramp  0.500 eV to -0.500 eV placed in cell
ts-Vha: -0.11478E-05 eV

stepf: Fermi-Dirac step function
ts-Vha: -0.13711E+02 eV

siesta: Program's energy decomposition (eV):
siesta: Ebs     =       166.986547
siesta: Eions   =     11712.249174
siesta: Ena     =       583.627907
siesta: Ekin    =      6219.963953
siesta: Enl     =     -2861.933825
siesta: Eso     =         0.000000
siesta: Edftu   =         0.000000
siesta: DEna    =       117.274195
siesta: DUscf   =        11.470129
siesta: DUext   =         0.000000
siesta: Exc     =     -1398.382824
siesta: eta*DQ  =         0.000000
siesta: Emadel  =         0.000000
siesta: Emeta   =         0.000000
siesta: Emolmec =         0.000000
siesta: Ekinion =         0.000000
siesta: Eharris =     -9025.110195
siesta: Etot    =     -9040.229639
siesta: FreeEng =     -9040.231363

        iscf     Eharris(eV)        E_KS(eV)     FreeEng(eV)     dDmax    Ef(eV) dHmax(eV)
   scf:    1    -9025.110195    -9040.229639    -9040.231363  0.237449 -2.582722 21.456003
timer: Routine,Calls,Time,% = IterSCF        1       6.570  33.41
ts-Vha:  0.12683E+02 eV
   scf:    2    -9031.653946    -9040.214895    -9040.216725  0.050530 -2.341927 23.510217
ts-Vha:  0.12863E+00 eV
   scf:    3    -9043.833688    -9042.945169    -9042.947072  0.030586 -2.513317  5.147232
ts-Vha: -0.38609E+01 eV
   scf:    4    -9043.548894    -9043.368752    -9043.370606  0.013192 -2.561513  4.368199
ts-Vha:  0.59340E+01 eV
   scf:    5    -9042.514850    -9043.483002    -9043.485631  0.035074 -2.471073 12.851190
ts-Vha: -0.56118E+02 eV
   scf:    6    -8920.133135    -9006.274361    -9006.276192  0.140366 -3.407560 91.191020
ts-Vha: -0.15921E+02 eV
   scf:    7    -9056.292942    -9041.719584    -9041.723225  0.093209 -2.694926 23.863754
ts-Vha: -0.28874E+02 eV
   scf:    8    -9027.095257    -9035.552533    -9035.554437  0.053207 -2.963348 42.733445
ts-Vha: -0.28038E+02 eV
   scf:    9    -9036.685983    -9036.150063    -9036.151613  0.013646 -3.033615 41.051261
ts-Vha: -0.77407E+01 eV
   scf:   10    -9048.171074    -9044.650826    -9044.654606  0.077874 -2.850924 10.896059
ts-Vha: -0.11350E+02 eV
   scf:   11    -9042.928140    -9043.871174    -9043.875087  0.010425 -2.897294 16.862403
ts-Vha: -0.28670E+01 eV
   scf:   12    -9045.601228    -9045.186892    -9045.190656  0.026254 -2.794464  3.157661
ts-Vha: -0.21644E+01 eV
   scf:   13    -9045.236243    -9045.215047    -9045.218811  0.004032 -2.790372  2.032976
ts-Vha: -0.12054E+01 eV
   scf:   14    -9045.221882    -9045.225544    -9045.229453  0.007716 -2.760177  0.442305
ts-Vha: -0.12350E+01 eV
   scf:   15    -9045.226278    -9045.225930    -9045.229829  0.000750 -2.761889  0.510614
ts-Vha: -0.11265E+01 eV
   scf:   16    -9045.227128    -9045.226645    -9045.230562  0.001397 -2.758991  0.303466
ts-Vha: -0.10411E+01 eV
   scf:   17    -9045.257783    -9045.244213    -9045.248112  0.006592 -2.780288  0.147666
ts-Vha: -0.93238E+00 eV
   scf:   18    -9045.247625    -9045.246133    -9045.250049  0.001856 -2.783482  0.137039
ts-Vha: -0.96141E+00 eV
   scf:   19    -9045.246385    -9045.246280    -9045.250197  0.000724 -2.787009  0.092635
ts-Vha: -0.98024E+00 eV
   scf:   20    -9045.246404    -9045.246352    -9045.250269  0.000490 -2.789480  0.068397
ts-Vha: -0.98072E+00 eV
   scf:   21    -9045.246430    -9045.246394    -9045.250311  0.000241 -2.790373  0.073072
ts-Vha: -0.10036E+01 eV
   scf:   22    -9045.247159    -9045.246795    -9045.250708  0.001160 -2.791151  0.060772
ts-Vha: -0.10064E+01 eV
   scf:   23    -9045.247530    -9045.247226    -9045.251122  0.002236 -2.789512  0.032445
ts-Vha: -0.10176E+01 eV
   scf:   24    -9045.247833    -9045.247577    -9045.251424  0.001979 -2.793101  0.017369
ts-Vha: -0.10146E+01 eV
   scf:   25    -9045.247661    -9045.247622    -9045.251457  0.000357 -2.794009  0.007499
ts-Vha: -0.10133E+01 eV
   scf:   26    -9045.247639    -9045.247629    -9045.251459  0.000123 -2.794480  0.006440
ts-Vha: -0.10116E+01 eV
   scf:   27    -9045.247621    -9045.247629    -9045.251465  0.000140 -2.793914  0.008331
ts-Vha: -0.10101E+01 eV
   scf:   28    -9045.247639    -9045.247635    -9045.251468  0.000092 -2.794280  0.006605
ts-Vha: -0.10101E+01 eV
   scf:   29    -9045.247633    -9045.247634    -9045.251468  0.000040 -2.794188  0.006744
ts-Vha: -0.10092E+01 eV
   scf:   30    -9045.247636    -9045.247635    -9045.251469  0.000056 -2.794151  0.007600
ts-Vha: -0.10099E+01 eV
   scf:   31    -9045.247630    -9045.247633    -9045.251468  0.000039 -2.794026  0.006533
ts-Vha: -0.10096E+01 eV
   scf:   32    -9045.247629    -9045.247631    -9045.251467  0.000029 -2.793978  0.007026
ts-Vha: -0.10106E+01 eV
   scf:   33    -9045.247648    -9045.247639    -9045.251471  0.000136 -2.794189  0.006247
ts-Vha: -0.10118E+01 eV
   scf:   34    -9045.247646    -9045.247640    -9045.251467  0.000109 -2.794382  0.004743
ts-Vha: -0.10106E+01 eV
   scf:   35    -9045.247648    -9045.247644    -9045.251469  0.000088 -2.794481  0.004642
ts-Vha: -0.10112E+01 eV
   scf:   36    -9045.247651    -9045.247647    -9045.251470  0.000072 -2.794573  0.003599
ts-Vha: -0.10107E+01 eV
   scf:   37    -9045.247653    -9045.247650    -9045.251471  0.000048 -2.794469  0.003902
ts-Vha: -0.10114E+01 eV
   scf:   38    -9045.247666    -9045.247658    -9045.251474  0.000178 -2.794345  0.001614
ts-Vha: -0.10121E+01 eV
   scf:   39    -9045.247666    -9045.247662    -9045.251474  0.000086 -2.794396  0.001127
ts-Vha: -0.10118E+01 eV
   scf:   40    -9045.247660    -9045.247661    -9045.251474  0.000019 -2.794365  0.001294
ts-Vha: -0.10123E+01 eV
   scf:   41    -9045.247669    -9045.247665    -9045.251474  0.000089 -2.794484  0.001114
ts-Vha: -0.10120E+01 eV
   scf:   42    -9045.247664    -9045.247665    -9045.251474  0.000025 -2.794466  0.000957

SCF Convergence by DM+H criterion
max |DM_out - DM_in|         :     0.0000246591
max |H_out - H_in|      (eV) :     0.0009572362
SCF cycle converged after 42 iterations

                     ***************************
                     *  WELCOME TO TRANSIESTA  *
                     ***************************

ts-Vha: -0.10120E+01 eV

transiesta: created H and S sparsity pattern:
  <sparsity:(M of: G ((UC of: T T T sparsity for geom step 0)))
    nrows_g=90 nrows=90 sparsity=.2632 nnzs=2132, refcount: 1>

transiesta: created local update sparsity pattern:
  <sparsity:(M of: T T T sparsity for geom step 0)
    nrows_g=90 nrows=12 sparsity=.0000 nnzs=0, refcount: 1>

transiesta: created update sparsity pattern:
  <sparsity:G ((UC of: (M of: T T T sparsity for geom step 0)))
    nrows_g=90 nrows=90 sparsity=.0800 nnzs=648, refcount: 1>

transiesta: Determining an optimal tri-matrix using: atom+Left
transiesta: Established a near-optimal partition for the tri-diagonal matrix.
BTD partitions (4): 
  [ 22, 23, 22, 23 ]
transiesta: Matrix elements in % of full matrix:  62.49383 %

transiesta: mem of electrodes (static):                     0.07MB
transiesta: mem of global update arrays (static):           0.10MB
transiesta: mem of master node sparse arrays:               0.00MB
transiesta: mem of tri-diagonal matrices:                   0.15MB
transiesta: Total memory usage:                             0.59MB

transiesta: Charge distribution, target =    110.00000
Total charge                  [Q]  :    110.00000
Device                        [D]  :     43.69955
Left                          [E1] :     32.70105
Left                 / device [C1] :      0.30615
Right                         [E2] :     32.70105
Right                / device [C2] :      0.30615
Other                         [O]  :      0.28604
Excess charge                [dQ]  : -1.42109E-14

ts-err-D: ij(   28,    28), M = 0.78087   , ew = -.47316E-1, em = 0.47316E-1. avg_em = -.26189E-04
ts-err-E: ij(   28,    28), M = -3.3561   , ew = -.74771E-2, em = 0.74771E-2. avg_em = -.28022E-05
ts-w-q:               qP1       qP2
ts-w-q:            22.106    21.545
ts-q:         D        E1        C1        E2        C2        dQ
ts-q:    43.652    32.701     0.306    32.701     0.306 -.477E-01
ts-Vha:  0.25754E+01 eV

siesta: Program's energy decomposition (eV):
siesta: Ebs     =     -1141.146712
siesta: Eions   =     11712.249174
siesta: Ena     =       583.627907
siesta: Ekin    =      6364.023749
siesta: Enl     =     -2949.872347
siesta: Eso     =         0.000000
siesta: Edftu   =         0.000000
siesta: DEna    =        78.354191
siesta: DUscf   =         9.190353
siesta: DUext   =         0.000000
siesta: Exc     =     -1412.661445
siesta: eta*DQ  =         0.000000
siesta: Emadel  =         0.000000
siesta: Emeta   =         0.000000
siesta: Emolmec =         0.000000
siesta: Ekinion =         0.000000
siesta: Eharris =     -9028.388370
siesta: Etot    =     -9039.586765
siesta: FreeEng =     -9039.586765
ts: E-dN      =         0.280506
ts: Band Stru =      -455.649494
ts: Kinetic   =      2542.658643
ts: Ion-elec  =    -46484.980321
ts: Eharris   =    -11082.225587
ts: Etot      =    -11093.423982
ts: FreeEng   =    -11093.423982

        iscf     Eharris(eV)        E_KS(eV)     FreeEng(eV)     dDmax    Ef(eV) dHmax(eV)
ts-scf:    1   -11082.225587   -11093.423982   -11093.423982  0.087815 -2.794466 24.532117
timer: Routine,Calls,Time,% = TS             1       4.506   1.60
ts-err-D: ij(   46,    46), M = 0.84914   , ew = 0.78688E-4, em = 0.78688E-4. avg_em = -.25779E-07
ts-err-E: ij(   28,    28), M = -2.9921   , ew = -.19678E-4, em = 0.19678E-4. avg_em = -.12596E-08
ts-w-q:               qP1       qP2
ts-w-q:            21.642    22.145
ts-q:         D        E1        C1        E2        C2        dQ
ts-q:    43.787    32.701     0.306    32.701     0.306 0.872E-01
ts-Vha: -0.55575E+01 eV
ts-scf:    2   -11076.076980   -11095.185589   -11095.185589  0.176249 -2.794466 25.670235
ts-err-D: ij(   53,    53), M = 0.27924E-1, ew = 0.34527E-2, em = 0.34527E-2. avg_em = 0.49377E-05
ts-err-E: ij(   53,  5093), M = 0.11076E-2, ew = -.13963E-2, em = -.13963E-2. avg_em = 0.18539E-05
ts-w-q:               qP1       qP2
ts-w-q:            21.841    21.820
ts-q:         D        E1        C1        E2        C2        dQ
ts-q:    43.660    32.701     0.306    32.701     0.306 -.391E-01
ts-Vha: -0.30132E+00 eV
ts-scf:    3   -11098.295317   -11099.064416   -11099.064416  0.091911 -2.794466  1.628562
ts-err-D: ij(   53,    53), M = 0.28137E-1, ew = 0.33323E-2, em = 0.33323E-2. avg_em = 0.66522E-05
ts-err-E: ij(   53,  5093), M = 0.11104E-2, ew = -.13905E-2, em = -.13905E-2. avg_em = 0.27049E-05
ts-w-q:               qP1       qP2
ts-w-q:            21.859    21.834
ts-q:         D        E1        C1        E2        C2        dQ
ts-q:    43.693    32.701     0.306    32.701     0.306 -.640E-02
ts-Vha: -0.82934E+00 eV
ts-scf:    4   -11099.303318   -11099.200346   -11099.200346  0.004840 -2.794466  0.808596
ts-err-D: ij(   53,    53), M = 0.28562E-1, ew = 0.34198E-2, em = 0.34198E-2. avg_em = 0.46224E-05
ts-err-E: ij(   53,  5093), M = 0.11184E-2, ew = -.14934E-2, em = -.14934E-2. avg_em = 0.17574E-05
ts-w-q:               qP1       qP2
ts-w-q:            21.849    21.847
ts-q:         D        E1        C1        E2        C2        dQ
ts-q:    43.696    32.701     0.306    32.701     0.306 -.399E-02
ts-Vha: -0.98230E+00 eV
ts-scf:    5   -11099.241927   -11099.231101   -11099.231101  0.005333 -2.794466  0.844019
ts-err-D: ij(   53,    53), M = 0.29090E-1, ew = 0.34579E-2, em = 0.34579E-2. avg_em = 0.45323E-05
ts-err-E: ij(   53,  3113), M = 0.11335E-2, ew = -.15557E-2, em = -.15557E-2. avg_em = 0.17694E-05
ts-w-q:               qP1       qP2
ts-w-q:            21.862    21.836
ts-q:         D        E1        C1        E2        C2        dQ
ts-q:    43.698    32.701     0.306    32.701     0.306 -.110E-02
ts-Vha: -0.92003E+00 eV
ts-scf:    6   -11099.210550   -11099.227685   -11099.227685  0.007080 -2.794466  0.485753
ts-err-D: ij(   53,    53), M = 0.29158E-1, ew = 0.34761E-2, em = 0.34761E-2. avg_em = 0.37289E-05
ts-err-E: ij(   53,  5093), M = 0.11312E-2, ew = -.15769E-2, em = -.15769E-2. avg_em = 0.13774E-05
ts-w-q:               qP1       qP2
ts-w-q:            21.856    21.841
ts-q:         D        E1        C1        E2        C2        dQ
ts-q:    43.696    32.701     0.306    32.701     0.306 -.316E-02
ts-Vha: -0.93645E+00 eV
ts-scf:    7   -11099.229806   -11099.230539   -11099.230539  0.001368 -2.794466  0.121772
ts-err-D: ij(   53,    53), M = 0.29283E-1, ew = 0.34491E-2, em = 0.34491E-2. avg_em = 0.33919E-05
ts-err-E: ij(   53,  5093), M = 0.11307E-2, ew = -.15868E-2, em = -.15868E-2. avg_em = 0.12269E-05
ts-w-q:               qP1       qP2
ts-w-q:            21.854    21.841
ts-q:         D        E1        C1        E2        C2        dQ
ts-q:    43.695    32.701     0.306    32.701     0.306 -.467E-02
ts-Vha: -0.90653E+00 eV
ts-scf:    8   -11099.217515   -11099.223834   -11099.223834  0.001777 -2.794466  0.112867
ts-err-D: ij(   53,    53), M = 0.29342E-1, ew = 0.34552E-2, em = 0.34552E-2. avg_em = 0.33846E-05
ts-err-E: ij(   53,  5093), M = 0.11261E-2, ew = -.15988E-2, em = -.15988E-2. avg_em = 0.12255E-05
ts-w-q:               qP1       qP2
ts-w-q:            21.854    21.843
ts-q:         D        E1        C1        E2        C2        dQ
ts-q:    43.697    32.701     0.306    32.701     0.306 -.251E-02
ts-Vha: -0.95016E+00 eV
ts-scf:    9   -11099.240139   -11099.233384   -11099.233384  0.000584 -2.794466  0.020537
ts-err-D: ij(   53,    53), M = 0.29343E-1, ew = 0.34550E-2, em = 0.34550E-2. avg_em = 0.33971E-05
ts-err-E: ij(   53,  5093), M = 0.11262E-2, ew = -.15988E-2, em = -.15988E-2. avg_em = 0.12316E-05
ts-w-q:               qP1       qP2
ts-w-q:            21.854    21.843
ts-q:         D        E1        C1        E2        C2        dQ
ts-q:    43.697    32.701     0.306    32.701     0.306 -.277E-02
ts-Vha: -0.94490E+00 eV
ts-scf:   10   -11099.231032   -11099.232046   -11099.232046  0.000067 -2.794466  0.012524
ts-err-D: ij(   53,    53), M = 0.29384E-1, ew = 0.34427E-2, em = 0.34427E-2. avg_em = 0.34778E-05
ts-err-E: ij(   53,  5093), M = 0.11223E-2, ew = -.15986E-2, em = -.15986E-2. avg_em = 0.12733E-05
ts-w-q:               qP1       qP2
ts-w-q:            21.854    21.843
ts-q:         D        E1        C1        E2        C2        dQ
ts-q:    43.697    32.701     0.306    32.701     0.306 -.279E-02
ts-Vha: -0.94591E+00 eV
ts-scf:   11   -11099.229941   -11099.230991   -11099.230991  0.000467 -2.794466  0.008608
ts-err-D: ij(   53,    53), M = 0.29402E-1, ew = 0.34330E-2, em = 0.34330E-2. avg_em = 0.35326E-05
ts-err-E: ij(   53,  5093), M = 0.11201E-2, ew = -.15965E-2, em = -.15965E-2. avg_em = 0.13011E-05
ts-w-q:               qP1       qP2
ts-w-q:            21.854    21.843
ts-q:         D        E1        C1        E2        C2        dQ
ts-q:    43.697    32.701     0.306    32.701     0.306 -.277E-02
ts-Vha: -0.94608E+00 eV
ts-scf:   12   -11099.230009   -11099.230499   -11099.230499  0.000264 -2.794466  0.006535
ts-err-D: ij(   53,    53), M = 0.29397E-1, ew = 0.34343E-2, em = 0.34343E-2. avg_em = 0.35536E-05
ts-err-E: ij(   53,  5093), M = 0.11200E-2, ew = -.15966E-2, em = -.15966E-2. avg_em = 0.13098E-05
ts-w-q:               qP1       qP2
ts-w-q:            21.854    21.843
ts-q:         D        E1        C1        E2        C2        dQ
ts-q:    43.697    32.701     0.306    32.701     0.306 -.265E-02
ts-Vha: -0.94594E+00 eV
ts-scf:   13   -11099.231243   -11099.230915   -11099.230915  0.000127 -2.794466  0.003886
ts-err-D: ij(   53,    53), M = 0.29406E-1, ew = 0.34272E-2, em = 0.34272E-2. avg_em = 0.35804E-05
ts-err-E: ij(   53,  5093), M = 0.11187E-2, ew = -.15947E-2, em = -.15947E-2. avg_em = 0.13238E-05
ts-w-q:               qP1       qP2
ts-w-q:            21.854    21.843
ts-q:         D        E1        C1        E2        C2        dQ
ts-q:    43.697    32.701     0.306    32.701     0.306 -.248E-02
ts-Vha: -0.94757E+00 eV
ts-scf:   14   -11099.231628   -11099.231353   -11099.231353  0.000140 -2.794466  0.002875
ts-err-D: ij(   53,    53), M = 0.29403E-1, ew = 0.34294E-2, em = 0.34294E-2. avg_em = 0.35681E-05
ts-err-E: ij(   53,  5093), M = 0.11191E-2, ew = -.15954E-2, em = -.15954E-2. avg_em = 0.13176E-05
ts-w-q:               qP1       qP2
ts-w-q:            21.854    21.843
ts-q:         D        E1        C1        E2        C2        dQ
ts-q:    43.697    32.701     0.306    32.701     0.306 -.252E-02
ts-Vha: -0.94712E+00 eV
ts-scf:   15   -11099.231260   -11099.231290   -11099.231290  0.000046 -2.794466  0.001672
ts-err-D: ij(   53,    53), M = 0.29405E-1, ew = 0.34280E-2, em = 0.34280E-2. avg_em = 0.35737E-05
ts-err-E: ij(   53,  5093), M = 0.11189E-2, ew = -.15950E-2, em = -.15950E-2. avg_em = 0.13205E-05
ts-w-q:               qP1       qP2
ts-w-q:            21.854    21.843
ts-q:         D        E1        C1        E2        C2        dQ
ts-q:    43.697    32.701     0.306    32.701     0.306 -.249E-02
ts-Vha: -0.94728E+00 eV
ts-scf:   16   -11099.231433   -11099.231375   -11099.231375  0.000031 -2.794466  0.001588
ts-err-D: ij(   53,    53), M = 0.29403E-1, ew = 0.34290E-2, em = 0.34290E-2. avg_em = 0.35804E-05
ts-err-E: ij(   53,  5093), M = 0.11190E-2, ew = -.15953E-2, em = -.15953E-2. avg_em = 0.13235E-05
ts-w-q:               qP1       qP2
ts-w-q:            21.854    21.843
ts-q:         D        E1        C1        E2        C2        dQ
ts-q:    43.697    32.701     0.306    32.701     0.306 -.250E-02
ts-Vha: -0.94725E+00 eV
ts-scf:   17   -11099.231395   -11099.231380   -11099.231380  0.000018 -2.794466  0.001204
ts-err-D: ij(   53,    53), M = 0.29401E-1, ew = 0.34299E-2, em = 0.34299E-2. avg_em = 0.35843E-05
ts-err-E: ij(   53,  5093), M = 0.11191E-2, ew = -.15955E-2, em = -.15955E-2. avg_em = 0.13252E-05
ts-w-q:               qP1       qP2
ts-w-q:            21.854    21.843
ts-q:         D        E1        C1        E2        C2        dQ
ts-q:    43.697    32.701     0.306    32.701     0.306 -.253E-02
ts-Vha: -0.94695E+00 eV
ts-scf:   18   -11099.231177   -11099.231259   -11099.231259  0.000015 -2.794466  0.000798

SCF Convergence by DM+H+dQ criterion
max |DM_out - DM_in|         :     0.0000152231
max |H_out - H_in|      (eV) :     0.0007979526
     Q(TS) - Q(dev)          :    -0.0025337505
SCF cycle converged after 18 iterations

Using DM_out to compute the final energy and forces
No. of atoms with KB's overlaping orbs in proc 0. Max # of overlaps:      60     237
ts-Vha: -0.94695E+00 eV

siesta: E_KS(eV) =            -9045.1192

siesta: E_KS - E_eggbox =     -9045.1192

siesta: Atomic forces (eV/Ang):
----------------------------------------
   Tot    0.000000   -0.000000    0.168150
----------------------------------------
   Max    0.245197
   Res    0.063376    sqrt( Sum f_i^2 / 3N )
----------------------------------------
   Max    0.245197    constrained

ts: Atomic forces (eV/Ang):
----------------------------------------
   Tot    0.000000   -0.000000    0.051707
----------------------------------------
   Max    0.245197
   Res    0.067632    sqrt( Sum f_i^2 / 3N )
----------------------------------------
   Max    0.245197    constrained

Stress tensor Voigt[x,y,z,yz,xz,xy] (kbar):       38.72       38.72       27.47        0.00        0.00        0.00
(Free)E + p*V (eV/cell)    -9050.1302
Target enthalpy (eV/cell)    -9045.1192

mulliken: Atomic and Orbital Populations:

Species: Au                  
Atom  Qatom  Qorb
               6s      5dxy    5dyz    5dz2    5dxz    5dx2-y2 6Ppy    6Ppz    
               6Ppx    
   1 11.002   1.007   1.907   1.918   1.893   1.918   1.907   0.151   0.149
              0.151
   2 10.996   0.998   1.906   1.923   1.889   1.923   1.906   0.150   0.152
              0.150
   3 10.999   1.005   1.909   1.919   1.890   1.919   1.909   0.151   0.146
              0.151
   4 10.976   0.989   1.908   1.927   1.888   1.927   1.908   0.146   0.136
              0.146
   5 11.032   1.062   1.891   1.938   1.926   1.938   1.891   0.138   0.112
              0.138
   6 11.021   1.058   1.891   1.938   1.926   1.938   1.891   0.137   0.106
              0.137
   7 10.974   0.988   1.908   1.928   1.888   1.928   1.908   0.146   0.136
              0.146
   8 10.999   1.005   1.909   1.919   1.890   1.919   1.909   0.151   0.146
              0.151
   9 10.996   0.998   1.906   1.923   1.889   1.923   1.906   0.150   0.152
              0.150
  10 11.002   1.007   1.907   1.918   1.893   1.918   1.907   0.151   0.149
              0.151

mulliken: Qtot =      109.997

transiesta: Charge distribution, target =    110.00000
Total charge                  [Q]  :    109.99747
Device                        [D]  :     43.69701
Left                          [E1] :     32.70105
Left                 / device [C1] :      0.30615
Right                         [E2] :     32.70105
Right                / device [C2] :      0.30615
Other                         [O]  :      0.28604
Excess charge                [dQ]  : -2.53375E-03


coxmol: Writing XMOL coordinates into file au_111_capacitor.xyz                                                

siesta: Program's energy decomposition (eV):
siesta: Ebs     =      -762.716015
siesta: Eions   =     11712.249174
siesta: Ena     =       583.627907
siesta: Ekin    =      6367.332352
siesta: Enl     =     -2951.389648
siesta: Eso     =         0.000000
siesta: Edftu   =         0.000000
siesta: DEna    =        77.245241
siesta: DUscf   =         3.783481
siesta: DUext   =         0.000000
siesta: Exc     =     -1413.469378
siesta: eta*DQ  =         0.000000
siesta: Emadel  =         0.000000
siesta: Emeta   =         0.000000
siesta: Emolmec =         0.000000
siesta: Ekinion =         0.000000
siesta: Eharris =     -9045.119137
siesta: Etot    =     -9045.119220
siesta: FreeEng =     -9045.119220
ts: E-dN      =         0.005684
ts: Band Stru =      -296.716739
ts: Kinetic   =      2545.967246
ts: Ion-elec  =    -46877.456439
ts: Eharris   =    -11099.231177
ts: Etot      =    -11099.231259
ts: FreeEng   =    -11099.231259

siesta: Final energy (eV):
siesta:  Band Struct. =    -762.716015
siesta:       Kinetic =    6367.332352
siesta:       Hartree =   21682.784890
siesta:       Edftu   =       0.000000
siesta:       Eso     =       0.000000
siesta:    Ext. field =       0.000000
siesta:   Exch.-corr. =   -1413.469378
siesta:  Ion-electron =  -48644.703821
siesta:       Ion-ion =   12962.936739
siesta:       Ekinion =       0.000000
siesta:         Total =   -9045.119220
ts:         E-dN  =       0.005684
ts:     Band Stru =    -296.716739
ts:       Kinetic =    2545.967246
ts:      Ion-elec =  -46877.456439
ts:         Total =  -11099.231259
siesta:         Fermi =      -2.794466

siesta: Atomic forces (eV/Ang):
siesta:      1    0.000000   -0.000000    0.149124
siesta:      2   -0.000000    0.000000    0.007477
siesta:      3   -0.000000    0.000000    0.014572
siesta:      4    0.000000   -0.000000   -0.187044
siesta:      5    0.000000    0.000000   -0.024775
siesta:      6   -0.000000   -0.000000    0.018329
siesta:      7    0.000000   -0.000000    0.245197
siesta:      8    0.000000    0.000000   -0.020897
siesta:      9    0.000000   -0.000000    0.004559
siesta:     10    0.000000    0.000000   -0.038391
siesta: ----------------------------------------
siesta:    Tot    0.000000   -0.000000    0.168150

ts: Atomic forces (eV/Ang):
ts:      1    0.000000    0.000000    0.000000
ts:      2    0.000000    0.000000    0.000000
ts:      3    0.000000    0.000000    0.000000
ts:      4    0.000000   -0.000000   -0.187044
ts:      5    0.000000    0.000000   -0.024775
ts:      6   -0.000000   -0.000000    0.018329
ts:      7    0.000000   -0.000000    0.245197
ts:      8    0.000000    0.000000    0.000000
ts:      9    0.000000    0.000000    0.000000
ts:     10    0.000000    0.000000    0.000000
ts: ----------------------------------------
ts:    Tot    0.000000   -0.000000    0.051707

siesta: Stress tensor (static) (eV/Ang**3):
siesta:     0.024165    0.000000    0.000000
siesta:     0.000000    0.024165    0.000000
siesta:     0.000000    0.000000    0.017147

siesta: Cell volume =        229.595743 Ang**3

siesta: Pressure (static):
siesta:                Solid            Molecule  Units
siesta:          -0.00023771         -0.00024153  Ry/Bohr**3
siesta:          -0.02182545         -0.02217669  eV/Ang**3
siesta:         -34.96860287        -35.53135937  kBar
(Free)E+ p_basis*V_orbitals  =       -9038.189983
(Free)Eharris+ p_basis*V_orbitals  =       -9038.189901
ts-Vha: -0.94695E+00 eV

dhscf: Vacuum level (max, mean) =    2.365102    2.183649 eV

cite: Please see "au_111_capacitor.bib" for an exhaustive BiBTeX file.
cite: Please clearly indicate Siesta version in published work: v4.1-b4-351
cite: This calculation has made use of the following articles
cite: which are encouraged to be cited in a published work.
        Primary SIESTA paper
          DOI: www.doi.org/10.1088/0953-8984/14/11/302
        Primary TranSiesta paper
          DOI: www.doi.org/10.1103/PhysRevB.65.165401
        TranSiesta N-electrode
          DOI: www.doi.org/10.1016/j.cpc.2016.09.022

>> End of run:  22-JAN-2021  23:43:16
Job completed
