Siesta Version  : v4.1-b4-351
Architecture    : x86_64-linux-n-62-26-19
Compiler version: GNU Fortran (GCC) 9.3.0
Compiler flags  : mpifort -m64 -fPIC -O3 -march=native -ftree-vectorize -fexpensive-optimizatioons -funroll-loops -fprefetch-loop-arrays -fno-second-underscore  -flto
PP flags        : -I/dtu/sw/dcc/SL73/2020-aug/generic/build-tools/1.0/include -I/dtu/sw/dcc/SL773/2020-aug/generic/gcc/9.3.0/include -I/dtu/sw/dcc/SL73/2020-aug/generic/gcc/9.3.0/include -I/dtu/sw/dcc/SL73/2020-aug/XeonE5-2660v3/gnu/9.3.0/zlib/1.2.11/include -I/dtu/sw/dcc/SL73/2020-aug/generic/numactl/2.0.12/include -I/dtu/sw/dcc/SL73/2020-aug/XeonE5-2660v3/gnu/9.3.0/libxml2/2.9.10/include -I/dtu/sw/dcc/SL73/2020-aug/XeonE5-2660v3/gnu/9.3.0/hwloc/2.2.0/include -I/dtu/sw/dcc/SL73/2020-aug/XeonE5-2660v3/gnu/9.3.0/knem/1.1.4/include -I/dtu/sw/dcc/SL73/2020-aug/XeonE5-2660v3/gnu/9.3.0/ucx/1.8.1/include -I/dtu/sw/dcc/SL73/2020-aug/XeonE5-2660v3/gnu/9.3.0/openmpi/4.0.4/include -I/dtu/sw/dcc/SL73/2020-aug/XeonE5-2660v3/gnu/9.3.0/szip/2.1.1/include -I/dtu/sw/dcc/SL73/2020-aug/XeonE5-2660v3/gnu/9.3.0/hdf5/1.12.0/include -I/dtu/sw/dcc/SL73/2020-aug/XeonE5-2660v3/gnu/9.3.0/pnetcdf/1.12.1/include -I/dtu/sw/dcc/SL73/2020-aug/generic/gen-zlib/1.2.11/include -I/dtu/sw/dcc/SL73/2020-aug/generic/openssl/1.1.1/include -I/dtu/sw/dcc/SL73/2020-aug/generic/libssh2/1.8.2/include -I/dtu/sw/dcc/SL73/2020-aug/generic/curl/7.65.1/include -I/dtu/sw/dcc/SL73/2020-aug/XeonE5-2660v3/gnu/9.3.0/netcdf/4.7.4/include -I/dtu/sw/dcc/SL73/2020-aug/XeonE5-2660v3/gnu/9.3.0/flook/0.8.1/include -I/dtu/sw/dcc/SL73/2020-aug/XeonE5-2660v3/gnu/9.3.0/fftw/3.3.8/include -I/dtu/sw/dcc/SL73/2020-aug/XeonE5-2660v3/gnu/9.3.0/parmetis/4.0.3/include -I/dtu/sw/dcc/SL73/2020-aug/XeonE5-2660v3/gnu/9.3.0/scalapack/2.1.0/include -I/dtu/sw/dcc/SL73/2020-aug/XeonE5-2660v3/gnu/9.3.0/lapack/3.9.0/include -I/dtu/sw/dcc/SL73/2020-aug/XeonE5-2660v3/gnu/9.3.0/blis/0.7.0/include -I/dtu/sw/dcc/SL73/2020-aug/XeonE5-2660v3/gnu/9.3.0/scotch/6.0.9/include -I/dtu/sw/dcc/SL73/2020-aug/XeonE5-2660v3/gnu/9.3.0/mumps/5.3.3/include -I/dtu/sw/dcc/SL73/2020-aug/XeonE5-2660v3/gnu/9.3.0/elpa/2020.05.001/include -DSIESTA__ELPA -DMPI -DFC_HAVE_FLUSH -DFC_HAVE_ABORT -DCDF -DCDF4 -DSIESTA__FLOOK  -DNCDF -DNCDF_4 -DNCDF_PARALLEL -DTS_NOCHECKS -DSIESTA__METIS -DSIESTA__MUMPS -DSIESTA__MRRR -I/dtu/sw/dcc/SL73/2020-aug/XeonE5-2660v3/gnu/9.3.0/elpa/2020.05.001/include/elpa
Libraries       : libncdf.a libfdict.a -lnetcdff -lnetcdf -lpnetcdf -lhdf5_hl -lhdf5 -lz  -lzmuumps -lmumps_common -lesmumps -lscotch -lscotcherr -lpord -lparmetis -lmetis -lelpa -lscalapack -llapack -lblis  -L/dtu/sw/dcc/SL73/2020-aug/XeonE5-2660v3/gnu/9.3.0/flook/0.8.1/lib -Wl,-rpath=/dtu/sw/dcc/SL73/2020-aug/XeonE5-2660v3/gnu/9.3.0/flook/0.8.1/lib -lflookall -ldl  -flto -fuse-linker-plugin  -lmetis
PARALLEL version
NetCDF support
NetCDF-4 support
NetCDF-4 MPI-IO support
METIS ordering support
Lua support

* Running on 8 nodes in parallel
>> Start of run:  22-JAN-2021  23:43:26

                           ***********************       
                           *  WELCOME TO SIESTA  *       
                           ***********************       

reinit: Reading from au_111_capacitor_single.fdf

reinit: -----------------------------------------------------------------------
reinit: System Name: au_111_capacitor_single
reinit: -----------------------------------------------------------------------
reinit: System Label: au_111_capacitor_single
reinit: -----------------------------------------------------------------------

initatom: Reading input for the pseudopotentials and atomic orbitals ----------
Species number:   1 Atomic number:   79 Label: Au

Ground state valence configuration:   6s01  5d10
Reading pseudopotential information in formatted form from Au.psf

Pseudopotential generated from a relativistic atomic calculation

Valence configuration for pseudopotential generation:
6s( 1.00) rc: 2.32
6p( 0.00) rc: 2.32
5d(10.00) rc: 2.32
5f( 0.00) rc: 2.32
For Au, standard SIESTA heuristics set lmxkb to 3
 (one more than the basis l, including polarization orbitals).
Use PS.lmax or PS.KBprojectors blocks to override.
Au: nkbl increased for l=1 due to the presence of a polarization orbital

<basis_specs>
===============================================================================
Au                   Z=  79    Mass=  196.97        Charge= 0.17977+309
Lmxo=2 Lmxkb= 3    BasisType=split      Semic=F
L=0  Nsemic=0  Cnfigmx=6
          i=1  nzeta=1  polorb=1  (6s)
            splnorm:   0.15000    
               vcte:    0.0000    
               rinn:    0.0000    
               qcoe:    0.0000    
               qyuk:    0.0000    
               qwid:   0.10000E-01
                rcs:    0.0000    
            lambdas:    1.0000    
L=1  Nsemic=0  Cnfigmx=6
L=2  Nsemic=0  Cnfigmx=5
          i=1  nzeta=1  polorb=0  (5d)
            splnorm:   0.15000    
               vcte:    0.0000    
               rinn:    0.0000    
               qcoe:    0.0000    
               qyuk:    0.0000    
               qwid:   0.10000E-01
                rcs:    0.0000    
            lambdas:    1.0000    
-------------------------------------------------------------------------------
L=0  Nkbl=1  erefs: 0.17977+309
L=1  Nkbl=2  erefs: 0.17977+309 0.17977+309
L=2  Nkbl=1  erefs: 0.17977+309
L=3  Nkbl=1  erefs: 0.17977+309
===============================================================================
</basis_specs>

atom: Called for Au                    (Z =  79)

read_vps: Pseudopotential generation method:
read_vps: ATM3      Troullier-Martins                       
Valence charge for ps generation:   11.00000

xc_check: Exchange-correlation functional:
xc_check: Ceperley-Alder
V l=0 = -2*Zval/r beyond r=  3.7361
V l=1 = -2*Zval/r beyond r=  3.7361
V l=2 = -2*Zval/r beyond r=  3.7361
V l=3 = -2*Zval/r beyond r=  3.7361
All V_l potentials equal beyond r=  2.2946
This should be close to max(r_c) in ps generation
All pots = -2*Zval/r beyond r=  3.7361
Using large-core scheme for Vlocal

atom: Estimated core radius    3.73611

atom: Including non-local core corrections could be a good idea
atom: Maximum radius for 4*pi*r*r*local-pseudopot. charge    4.07775
atom: Maximum radius for r*vlocal+2*Zval:    3.78310
GHOST: No ghost state for L =  0
KBgen: More than one KB projector for l=  1
KBgen: ghost states analysis will be not performed
GHOST: No ghost state for L =  2
GHOST: No ghost state for L =  3

KBgen: Kleinman-Bylander projectors: 
   l= 0   rc=  2.382235   el= -0.445645   Ekb=  4.511922   kbcos=  0.274440
   l= 1   rc=  2.382235   el= -0.065316   Ekb=  2.560647   kbcos=  0.223707
   l= 1   rc=  2.382235   el=  0.001421   Ekb=  2.131832   kbcos=  0.034244
   l= 2   rc=  2.382235   el= -0.526293   Ekb= -5.024070   kbcos= -0.676934
   l= 3   rc=  2.382235   el=  0.003438   Ekb= -2.070042   kbcos= -0.013117

KBgen: Total number of  Kleinman-Bylander projectors:   19
atom: -------------------------------------------------------------------------

atom: SANKEY-TYPE ORBITALS:

SPLIT: Orbitals with angular momentum L= 0

SPLIT: Basis orbitals for state 6s

SPLIT: PAO cut-off radius determined from an
SPLIT: energy shift=  0.005000 Ry

   izeta = 1
                 lambda =    1.000000
                     rc =    7.246712
                 energy =   -0.441368
                kinetic =    0.367640
    potential(screened) =   -0.809008
       potential(ionic) =   -8.408267

SPLIT: Orbitals with angular momentum L= 2

SPLIT: Basis orbitals for state 5d

SPLIT: PAO cut-off radius determined from an
SPLIT: energy shift=  0.005000 Ry

   izeta = 1
                 lambda =    1.000000
                     rc =    5.106662
                 energy =   -0.521343
                kinetic =    4.852314
    potential(screened) =   -5.373657
       potential(ionic) =  -16.114240

POLgen: Perturbative polarization orbital with L=  1

POLgen: Polarization orbital for state 6s

   izeta = 1
                     rc =    7.246712
                 energy =   -0.107868
                kinetic =    0.647525
    potential(screened) =   -0.755394
       potential(ionic) =   -7.869443
atom: Total number of Sankey-type orbitals:  9

atm_pop: Valence configuration (for local Pseudopot. screening):
 6s( 1.00)                                                            
 6p( 0.00)                                                            
 5d(10.00)                                                            
Vna: chval, zval:   11.00000  11.00000

Vna:  Cut-off radius for the neutral-atom potential:   7.246712

atom: _________________________________________________________________________

prinput: Basis input ----------------------------------------------------------

PAO.BasisType split     

%block ChemicalSpeciesLabel
    1   79 Au                      # Species index, atomic number, species label
%endblock ChemicalSpeciesLabel

%block PAO.Basis                 # Define Basis set
Au                    2                    # Species label, number of l-shells
 n=6   0   1 P   1                   # n, l, Nzeta, Polarization, NzetaPol
   7.247   
   1.000   
 n=5   2   1                         # n, l, Nzeta 
   5.107   
   1.000   
%endblock PAO.Basis

prinput: ----------------------------------------------------------------------

Dumping basis to NetCDF file Au.ion.nc
coor:   Atomic-coordinates input format  =     Cartesian coordinates
coor:                                          (in units of alat)

siesta: WARNING: XV file not found

siesta: Atomic coordinates (Bohr) and species
siesta:      0.00000   0.00000   9.39060  1        1
siesta:      2.76194   1.59461  13.90082  1        2
siesta:      2.76194  -1.59461  18.41105  1        3
siesta:      0.00000   0.00000  22.92128  1        4
siesta:      2.76194   1.59461  27.43151  1        5
siesta:      2.76194   1.59461   0.37014  1        6
siesta:      5.52388   3.18921   4.88037  1        7

siesta: System type = slab      

initatomlists: Number of atoms, orbitals, and projectors:      7    63   133

coxmol: Writing XMOL coordinates into file au_111_capacitor_single.xyz                                         

siesta: ******************** Simulation parameters ****************************
siesta:
siesta: The following are some of the parameters of the simulation.
siesta: A complete list of the parameters used, including default values,
siesta: can be found in file out.fdf
siesta:
redata: Spin configuration                          = none
redata: Number of spin components                   = 1
redata: Time-Reversal Symmetry                      = T
redata: Spin spiral                                 = F
redata: Long output                                 =   F
redata: Number of Atomic Species                    =        1
redata: Charge density info will appear in .RHO file
redata: Write Mulliken Pop.                         = Atomic and Orbital charges
redata: Matel table size (NRTAB)                    =     1024
redata: Mesh Cutoff                                 =   350.0000 Ry
redata: Net charge of the system                    =     0.0000 |e|
redata: Min. number of SCF Iter                     =        0
redata: Max. number of SCF Iter                     =      300
redata: SCF convergence failure will abort job
redata: SCF mix quantity                            = Hamiltonian
redata: Mix DM or H after convergence               =   F
redata: Recompute H after scf cycle                 =   F
redata: Mix DM in first SCF step                    =   T
redata: Write Pulay info on disk                    =   F
redata: New DM Occupancy tolerance                  = 0.000000000001
redata: No kicks to SCF
redata: DM Mixing Weight for Kicks                  =     0.5000
redata: Require Harris convergence for SCF          =   F
redata: Harris energy tolerance for SCF             =     0.000100 eV
redata: Require DM convergence for SCF              =   T
redata: DM tolerance for SCF                        =     0.000100
redata: Require EDM convergence for SCF             =   F
redata: EDM tolerance for SCF                       =     0.001000 eV
redata: Require H convergence for SCF               =   T
redata: Hamiltonian tolerance for SCF               =     0.001000 eV
redata: Require (free) Energy convergence for SCF   =   F
redata: (free) Energy tolerance for SCF             =     0.000100 eV
redata: Using Saved Data (generic)                  =   F
redata: Use continuation files for DM               =   T
redata: Neglect nonoverlap interactions             =   F
redata: Method of Calculation                       = Transiesta
redata: Fix the spin of the system                  =   F
redata: Dynamics option                             = Single-point calculation
mix.SCF: Pulay mixing                            = Pulay
mix.SCF:    Variant                              = stable
mix.SCF:    History steps                        = 5
mix.SCF:    Linear mixing weight                 =     0.030000
mix.SCF:    Mixing weight                        =     0.030000
mix.SCF:    SVD condition                        = 0.1000E-07
redata: Save all siesta data in one NC              =   F
redata: ***********************************************************************

%block SCF.Mixers
  Pulay
%endblock SCF.Mixers

%block SCF.Mixer.Pulay
  # Mixing method
  method pulay
  variant stable

  # Mixing options
  weight 0.0300
  weight.linear 0.0300
  history 5
%endblock SCF.Mixer.Pulay

DM_history_depth set to one: no extrapolation allowed by default for geometry relaxation
Size of DM history Fstack: 1
Total number of electrons:    77.000000
Total ionic charge:    77.000000

* ProcessorY, Blocksize:    2   8


* Orbital distribution balance (max,min):     8     7

k-point displ. along   1 input, could be:     0.00    0.50
k-point displ. along   2 input, could be:     0.00    0.50
 Kpoints in:           40 . Kpoints trimmed:           37

siesta: k-grid: Number of k-points =    37
siesta: k-grid: Cutoff (effective) =    11.692 Ang
siesta: k-grid: Supercell and displacements
siesta: k-grid:    8   0   0      0.000
siesta: k-grid:    0   8   0      0.000
siesta: k-grid:    0   0   1      0.000

diag: Algorithm                                     = Expert
diag: Parallel over k                               =   T
diag: Use parallel 2D distribution                  =   T
diag: Parallel block-size                           = 8
diag: Parallel distribution                         =     2 x     4
diag: Used triangular part                          = Lower
diag: Absolute tolerance                            =  0.100E-15
diag: Orthogonalization factor                      =  0.100E-05
diag: Memory factor                                 =  1.0000

superc: Internal auxiliary supercell:     9 x     9 x     1  =      81
superc: Number of atoms, orbitals, and projectors:    567   5103  10773

k-point displ. along   1 input, could be:     0.00    0.50
k-point displ. along   2 input, could be:     0.00    0.50
 Kpoints in:           40 . Kpoints trimmed:           37

transiesta: k-grid: Number of Green function k-points =    37
transiesta: k-grid: Supercell and displacements
transiesta: k-grid:    8   0   0      0.000
transiesta: k-grid:    0   8   0      0.000
transiesta: k-grid:    0   0   1      0.000

ts: **************************************************************
ts: Voltage                                         =    0.0000 Volts
ts: Save H and S matrices                           =    T
ts: Electronic temperature                          =   99.999269 K
ts: Transport along unit-cell vector                =    A3
ts: Transport along Cartesian vector                =    Z
ts: Fixing Hartree potential at cell boundary       =    -C
ts: Fix Hartree potential fraction                  =    1.0000
ts: Hartree potential offset                        =    0.000000 eV
ts: Solution method                                 =    BTD
ts: BTD pivoting method                             =    atom+Left
ts: BTD creation algorithm                          =    speed
ts: SCF DM tolerance                                = 0.100E-03
ts: SCF Hamiltonian tolerance                       =    0.001000 eV
ts: SCF converge charge                             =    T
ts: SCF charge tolerance                            = 0.550E-01
ts: Initialize DM by                                =    diagon
ts: Will not correct charge fluctuations
ts: TS.SCF mixing options same as SCF
ts:           >> Electrodes << 
ts: >> Left
ts:   Electrode cell pivoting: E1, E2, E3           = A1, A2, A3
ts:   GF file                                       = au_111_capacitor_single.TSGFLeft
ts:   Reuse existing GF-file                        =    T
ts:   Electrode TSHS file                           = ./elec_au_111_abc.TSHS
ts:   # atoms used in electrode                     =    3
ts:   Electrode Bloch unity [E1 x E2 x E3]          = 1 x 1 x 1
ts:   Position in geometry                          = 1 -- 3
ts:   Semi-infinite direction for electrode         = negative wrt. E3
ts:   Chemical shift                                =    0.000000 eV
ts:   Electronic temperature                        =   99.999269 K
ts:   Gamma-only electrode                          =    F
ts:   Bulk H, S in electrode region                 =    T
ts:   Initial DM for electrodes                     = diagon
ts:   Cross-terms are updated
ts:   Manual delta-Ef shift                         =    0.000000 eV
ts:   Electrode self-energy imaginary Eta           =  0.1000E-02 eV
ts:   Electrode self-energy accuracy                =  0.1000E-12 eV
ts:   Electrode inter-layer distance (semi-inf)     =    2.3867 Ang
ts:  ----------------- Contour ----------------- 
ts:            >> Residual contour << 
ts: Pole chemical potential                         =    0.0000 eV
ts:    Chemical potential temperature               =   99.9993 K
ts:    Number of poles                              =   47
ts:    Top energy point                             =    2.5448 eV
ts:          >> Equilibrium contour << 
ts: Contour name                                    =    TS.Contour.c-Left
ts:   circle contour E_min                          =  -40.0000 eV
ts:   circle contour E_max                          =   -0.0862 eV
ts:   circle contour points                         =   30
ts:   circle contour method                         =    Gauss-Legendre
ts: Contour name                                    =    TS.Contour.t-Left
ts:   tail contour E_min                            =   -0.0862 eV
ts:   tail contour E_max                            =     Infinity
ts:   tail contour points                           =   10
ts:   tail contour method                           =    Gauss-Fermi (0kT)
ts: **************************************************************

************************ Begin: TS CHECKS AND WARNINGS ************************
Without loosing performance you can increase the equilibrium integration precision.
You can add 1 more energy points in the equilibrium contours, for FREE!
This is 1 more energy points per chemical potential.
************************ End: TS CHECKS AND WARNINGS **************************


>>> TranSiesta block information for FDF-file START <<<

%block TS.ChemPots
  Left
%endblock TS.ChemPots

%block TS.ChemPot.Left
  mu  0. eV
  contour.eq
   begin
    c-Left
    t-Left
   end
%endblock TS.ChemPot.Left
%block TS.Contour.c-Left
  part circle
     from -40.00000 eV + V/2 to -10. kT + V/2
      points 30
        method g-legendre
%endblock TS.Contour.c-Left
%block TS.Contour.t-Left
  part tail
     from prev to + inf
      points 10
        method g-fermi
%endblock TS.Contour.t-Left

>>> TranSiesta block information for FDF-file END <<<


transiesta: Regions of atoms:
   // (2): Buffer
     [ 6 -- 7 ]
   ## (3): Elec.Left
     [ 1 -- 3 ]
   -- (2): Device
     [ 4 -- 5 ]

  <sparsity:./elec_au_111_abc.TSHS
    nrows_g=27 nrows=27 sparsity=44.2757 nnzs=32277, refcount: 3>
  <sparsity:(TM [--,--, 0] of: ./elec_au_111_abc.TSHS)
    nrows_g=27 nrows=27 sparsity=25.1152 nnzs=18309, refcount: 3>
  <sparsity:(TM [--,--,-1] of: ./elec_au_111_abc.TSHS)
    nrows_g=27 nrows=27 sparsity=9.4486 nnzs=6888, refcount: 3>
 Left principal cell is extending out with 96 elements:
    Atom 1 connects with atom 3
    Orbital 8 connects with orbital 26
    Hamiltonian value: |H(8,7046)|@R=-2 =  0.102E-18 eV
    Overlap          :  S(8,7046)|@R=-2 =   0.00    

Calculating all surface Green functions for: Left
 Fermi level shift in electrode (chemical potential) :        0.00000  eV
 Atoms available    / used atoms   :      3 /      3
 Orbitals available / used orbitals:     27 /     27
 Total self-energy calculations: 3219
 Saving surface Green functions in: au_111_capacitor_single.TSGFLeft
 Estimated file size:     36.630 MB
 Lopez Sancho, Lopez Sancho & Rubio recursive surface self-energy calculation...
 Lopez Sancho, Lopez Sancho & Rubio: Mean/std iterations:     4.7412 /     1.1166
 Lopez Sancho, Lopez Sancho & Rubio: Min/Max iterations :          3 /         11
Done creating 'au_111_capacitor_single.TSGFLeft'.


                     ====================================
                        Single-point calculation
                     ====================================

superc: Internal auxiliary supercell:     9 x     9 x     1  =      81
superc: Number of atoms, orbitals, and projectors:    567   5103  10773

outcell: Unit cell vectors (Ang):
        2.923110    0.000000    0.000000
        1.461555    2.531488    0.000000
        0.000000    0.000000   36.873441

outcell: Cell vector modules (Ang)   :    2.923110    2.923110   36.873441
outcell: Cell angles (23,13,12) (deg):     90.0000     90.0000     60.0000
outcell: Cell volume (Ang**3)        :    272.8567
<dSpData1D:S at geom step 0
  <sparsity:sparsity for geom step 0
    nrows_g=63 nrows=8 sparsity=2.1524 nnzs=8543, refcount: 7>
  <dData1D:(new from dSpData1D) n=8543, refcount: 1>
refcount: 1>
new_DM -- step:     1
Initializing Density Matrix...

Attempting to read DM, EDM from TSDE file... Failed...
Attempting to read DM from file... Failed...
DM filled with atomic data:
<dSpData2D:DM initialized from atoms
  <sparsity:sparsity for geom step 0
    nrows_g=63 nrows=8 sparsity=2.1524 nnzs=8543, refcount: 8>
  <dData2D:DM n=8543 m=1, refcount: 1>
refcount: 1>

transiesta: Initialization run using siesta

No. of atoms with KB's overlaping orbs in proc 0. Max # of overlaps:      43     237
New grid distribution:   1
           1       1:   15    1:    8    1:   54
           2       1:   15    1:    8   55:  108
           3       1:   15    1:    8  109:  162
           4       1:   15    1:    8  163:  216
           5       1:   15    9:   15    1:   54
           6       1:   15    9:   15   55:  108
           7       1:   15    9:   15  109:  162
           8       1:   15    9:   15  163:  216

InitMesh: MESH =    30 x    30 x   432 =      388800
InitMesh: (bp) =    15 x    15 x   216 =       48600
InitMesh: Mesh cutoff (required, used) =   350.000   379.352 Ry
ExtMesh (bp) on 0 =   107 x   100 x   146 =     1562200
New grid distribution:   2
           1       1:   15    1:   15   70:   80
           2       1:   15    1:   15   59:   69
           3       1:   15    1:   15   81:  216
           4       1:   15    1:   15   15:   25
           5       1:   15    1:   15    1:   14
           6       1:   15    1:   15   48:   58
           7       1:   15    1:   15   26:   36
           8       1:   15    1:   15   37:   47
New grid distribution:   3
           1       1:   15    1:   15   17:   32
           2       1:   15    1:   15   65:   80
           3       1:   15    1:   15   97:  200
           4       1:   15    1:   15   49:   64
           5       1:   15    1:   15    1:   16
           6       1:   15    1:   15   81:   96
           7       1:   15    1:   15   33:   48
           8       1:   15    1:   15  201:  216
Setting up quadratic distribution...
ExtMesh (bp) on 0 =   107 x   107 x   103 =     1179247
PhiOnMesh: Number of (b)points on node 0 =                 2475
PhiOnMesh: nlist on node 0 =               199281

efield: External electric field =    0.000000    0.000000   -0.132506 eV/Ang/e

dipole: A dipole layer will be introduced in the vacuum
dipole: region to compensate the vacuum field
dipole: Dipole direction     0.000000    -0.000000     1.000000
dipole: Field tolerance [eV/Ang/e]     0.000100
dipole: Vacuum plane point automatically determined


ts-WARNING: E-field/dipole-correction! 
ts-WARNING: I hope you know what you are doing!

ts-Vha: -0.92631E-06 eV
Dipole moment in unit cell =       0.0000      -0.0000       0.0000 D
Electric field for dipole correction =    -0.000000     0.000000    -0.000000 eV/Ang/e

stepf: Fermi-Dirac step function
ts-Vha: -0.53770E+02 eV
Dipole moment in unit cell =      -0.0000       0.0000     -38.5160 D
Electric field for dipole correction =     0.000000    -0.000000     5.317895 eV/Ang/e

siesta: Program's energy decomposition (eV):
siesta: Ebs     =      2850.692016
siesta: Eions   =      8198.574422
siesta: Ena     =       408.881455
siesta: Ekin    =      4346.890986
siesta: Enl     =     -1999.747715
siesta: Eso     =         0.000000
siesta: Edftu   =         0.000000
siesta: DEna    =        84.247438
siesta: DUscf   =        44.083897
siesta: DUext   =        20.259035
siesta: Exc     =      -977.269458
siesta: eta*DQ  =         0.000000
siesta: Emadel  =         0.000000
siesta: Emeta   =         0.000000
siesta: Emolmec =         0.000000
siesta: Ekinion =         0.000000
siesta: Eharris =     -6147.178697
siesta: Etot    =     -6271.228784
siesta: FreeEng =     -6271.231664

        iscf     Eharris(eV)        E_KS(eV)     FreeEng(eV)     dDmax    Ef(eV) dHmax(eV)
   scf:    1    -6147.178697    -6271.228784    -6271.231664  0.297390 -2.655517148.064471
timer: Routine,Calls,Time,% = IterSCF        1       0.740  21.46
ts-Vha:  0.13597E+03 eV
Dipole moment in unit cell =       0.0000      -0.0000      97.8889 D
Electric field for dipole correction =    -0.000000     0.000000   -13.515498 eV/Ang/e
   scf:    2    -4945.613595    -5961.312035    -5961.313802  0.475782 -1.067994391.237768
ts-Vha: -0.39988E+01 eV
Dipole moment in unit cell =      -0.0000       0.0000      -0.5476 D
Electric field for dipole correction =     0.000000    -0.000000     0.075612 eV/Ang/e
   scf:    3    -6337.407309    -6329.160040    -6329.162448  0.383813 -2.367371  6.007966
ts-Vha: -0.60822E+01 eV
Dipole moment in unit cell =      -0.0000       0.0000      -2.2747 D
Electric field for dipole correction =     0.000000    -0.000000     0.314070 eV/Ang/e
   scf:    4    -6329.661117    -6329.530778    -6329.533723  0.015485 -2.353384  7.781688
ts-Vha: -0.15689E+01 eV
Dipole moment in unit cell =       0.0000      -0.0000       0.2445 D
Electric field for dipole correction =    -0.000000     0.000000    -0.033757 eV/Ang/e
   scf:    5    -6330.342262    -6330.146742    -6330.150520  0.035077 -2.312080  4.333104
ts-Vha: -0.17961E+01 eV
Dipole moment in unit cell =       0.0000      -0.0000       0.1016 D
Electric field for dipole correction =    -0.000000     0.000000    -0.014029 eV/Ang/e
   scf:    6    -6330.468518    -6330.314517    -6330.317905  0.008524 -2.333765  3.076494
ts-Vha: -0.31059E+01 eV
Dipole moment in unit cell =      -0.0000       0.0000      -0.6302 D
Electric field for dipole correction =     0.000000    -0.000000     0.087010 eV/Ang/e
   scf:    7    -6330.587884    -6330.472167    -6330.475505  0.009629 -2.368758  1.823397
ts-Vha: -0.30193E+01 eV
Dipole moment in unit cell =      -0.0000       0.0000      -0.6275 D
Electric field for dipole correction =     0.000000    -0.000000     0.086636 eV/Ang/e
   scf:    8    -6330.564323    -6330.518626    -6330.521924  0.002197 -2.368098  1.768863
ts-Vha: -0.24978E+01 eV
Dipole moment in unit cell =      -0.0000       0.0000      -0.4870 D
Electric field for dipole correction =     0.000000    -0.000000     0.067233 eV/Ang/e
   scf:    9    -6331.144389    -6330.842665    -6330.845479  0.017222 -2.378662  0.959764
ts-Vha: -0.24038E+01 eV
Dipole moment in unit cell =      -0.0000       0.0000      -0.6777 D
Electric field for dipole correction =     0.000000    -0.000000     0.093567 eV/Ang/e
   scf:   10    -6331.484568    -6331.221809    -6331.223918  0.039504 -2.393653  1.743998
ts-Vha: -0.20133E+01 eV
Dipole moment in unit cell =      -0.0000       0.0000      -0.5701 D
Electric field for dipole correction =     0.000000    -0.000000     0.078715 eV/Ang/e
   scf:   11    -6331.271440    -6331.250899    -6331.252984  0.006139 -2.370060  0.875129
ts-Vha: -0.16760E+01 eV
Dipole moment in unit cell =      -0.0000       0.0000      -0.3694 D
Electric field for dipole correction =     0.000000    -0.000000     0.051001 eV/Ang/e
   scf:   12    -6331.303371    -6331.280107    -6331.282180  0.007904 -2.351055  0.528015
ts-Vha: -0.17561E+01 eV
Dipole moment in unit cell =      -0.0000       0.0000      -0.3898 D
Electric field for dipole correction =     0.000000    -0.000000     0.053824 eV/Ang/e
   scf:   13    -6331.292342    -6331.286591    -6331.288663  0.001734 -2.354831  0.316753
ts-Vha: -0.17796E+01 eV
Dipole moment in unit cell =      -0.0000       0.0000      -0.3751 D
Electric field for dipole correction =     0.000000    -0.000000     0.051796 eV/Ang/e
   scf:   14    -6331.299169    -6331.293543    -6331.295613  0.003399 -2.361991  0.366694
ts-Vha: -0.18853E+01 eV
Dipole moment in unit cell =      -0.0000       0.0000      -0.4234 D
Electric field for dipole correction =     0.000000    -0.000000     0.058463 eV/Ang/e
   scf:   15    -6331.298162    -6331.296241    -6331.298311  0.002541 -2.375081  0.189518
ts-Vha: -0.18830E+01 eV
Dipole moment in unit cell =      -0.0000       0.0000      -0.4161 D
Electric field for dipole correction =     0.000000    -0.000000     0.057455 eV/Ang/e
   scf:   16    -6331.298217    -6331.297265    -6331.299334  0.000868 -2.379317  0.182421
ts-Vha: -0.18901E+01 eV
Dipole moment in unit cell =      -0.0000       0.0000      -0.4131 D
Electric field for dipole correction =     0.000000    -0.000000     0.057033 eV/Ang/e
   scf:   17    -6331.299476    -6331.298429    -6331.300497  0.001309 -2.387156  0.100877
ts-Vha: -0.19057E+01 eV
Dipole moment in unit cell =      -0.0000       0.0000      -0.4234 D
Electric field for dipole correction =     0.000000    -0.000000     0.058461 eV/Ang/e
   scf:   18    -6331.299061    -6331.298759    -6331.300826  0.000725 -2.391274  0.050827
ts-Vha: -0.18878E+01 eV
Dipole moment in unit cell =      -0.0000       0.0000      -0.4117 D
Electric field for dipole correction =     0.000000    -0.000000     0.056842 eV/Ang/e
   scf:   19    -6331.299345    -6331.299069    -6331.301136  0.000780 -2.395084  0.076800
ts-Vha: -0.19097E+01 eV
Dipole moment in unit cell =      -0.0000       0.0000      -0.4259 D
Electric field for dipole correction =     0.000000    -0.000000     0.058804 eV/Ang/e
   scf:   20    -6331.299356    -6331.299228    -6331.301294  0.000685 -2.399546  0.019702
ts-Vha: -0.19115E+01 eV
Dipole moment in unit cell =      -0.0000       0.0000      -0.4250 D
Electric field for dipole correction =     0.000000    -0.000000     0.058678 eV/Ang/e
   scf:   21    -6331.299349    -6331.299298    -6331.301364  0.000487 -2.402380  0.021281
ts-Vha: -0.19115E+01 eV
Dipole moment in unit cell =      -0.0000       0.0000      -0.4247 D
Electric field for dipole correction =     0.000000    -0.000000     0.058642 eV/Ang/e
   scf:   22    -6331.299308    -6331.299303    -6331.301370  0.000102 -2.403267  0.021575
ts-Vha: -0.19090E+01 eV
Dipole moment in unit cell =      -0.0000       0.0000      -0.4234 D
Electric field for dipole correction =     0.000000    -0.000000     0.058464 eV/Ang/e
   scf:   23    -6331.299311    -6331.299308    -6331.301374  0.000090 -2.404119  0.024678
ts-Vha: -0.19105E+01 eV
Dipole moment in unit cell =      -0.0000       0.0000      -0.4248 D
Electric field for dipole correction =     0.000000    -0.000000     0.058656 eV/Ang/e
   scf:   24    -6331.299306    -6331.299307    -6331.301374  0.000101 -2.404914  0.017340
ts-Vha: -0.19100E+01 eV
Dipole moment in unit cell =      -0.0000       0.0000      -0.4247 D
Electric field for dipole correction =     0.000000    -0.000000     0.058634 eV/Ang/e
   scf:   25    -6331.299308    -6331.299308    -6331.301374  0.000013 -2.404882  0.017880
ts-Vha: -0.19112E+01 eV
Dipole moment in unit cell =      -0.0000       0.0000      -0.4255 D
Electric field for dipole correction =     0.000000    -0.000000     0.058742 eV/Ang/e
   scf:   26    -6331.299304    -6331.299306    -6331.301372  0.000053 -2.405250  0.015109
ts-Vha: -0.19115E+01 eV
Dipole moment in unit cell =      -0.0000       0.0000      -0.4258 D
Electric field for dipole correction =     0.000000    -0.000000     0.058786 eV/Ang/e
   scf:   27    -6331.299308    -6331.299307    -6331.301374  0.000039 -2.404959  0.014565
ts-Vha: -0.19110E+01 eV
Dipole moment in unit cell =      -0.0000       0.0000      -0.4257 D
Electric field for dipole correction =     0.000000    -0.000000     0.058776 eV/Ang/e
   scf:   28    -6331.299310    -6331.299309    -6331.301375  0.000063 -2.404486  0.016053
ts-Vha: -0.19117E+01 eV
Dipole moment in unit cell =      -0.0000       0.0000      -0.4258 D
Electric field for dipole correction =     0.000000    -0.000000     0.058789 eV/Ang/e
   scf:   29    -6331.299308    -6331.299309    -6331.301375  0.000066 -2.404291  0.016784
ts-Vha: -0.19137E+01 eV
Dipole moment in unit cell =      -0.0000       0.0000      -0.4265 D
Electric field for dipole correction =     0.000000    -0.000000     0.058882 eV/Ang/e
   scf:   30    -6331.299305    -6331.299307    -6331.301374  0.000099 -2.404708  0.014495
ts-Vha: -0.19159E+01 eV
Dipole moment in unit cell =      -0.0000       0.0000      -0.4273 D
Electric field for dipole correction =     0.000000    -0.000000     0.059003 eV/Ang/e
   scf:   31    -6331.299305    -6331.299307    -6331.301373  0.000277 -2.406667  0.009587
ts-Vha: -0.19166E+01 eV
Dipole moment in unit cell =      -0.0000       0.0000      -0.4277 D
Electric field for dipole correction =     0.000000    -0.000000     0.059055 eV/Ang/e
   scf:   32    -6331.299308    -6331.299307    -6331.301374  0.000063 -2.407274  0.007148
ts-Vha: -0.19142E+01 eV
Dipole moment in unit cell =      -0.0000       0.0000      -0.4279 D
Electric field for dipole correction =     0.000000    -0.000000     0.059084 eV/Ang/e
   scf:   33    -6331.299323    -6331.299317    -6331.301384  0.000236 -2.408190  0.002906
ts-Vha: -0.19130E+01 eV
Dipole moment in unit cell =      -0.0000       0.0000      -0.4274 D
Electric field for dipole correction =     0.000000    -0.000000     0.059009 eV/Ang/e
   scf:   34    -6331.299318    -6331.299318    -6331.301384  0.000034 -2.407943  0.003223
ts-Vha: -0.19141E+01 eV
Dipole moment in unit cell =      -0.0000       0.0000      -0.4277 D
Electric field for dipole correction =     0.000000    -0.000000     0.059053 eV/Ang/e
   scf:   35    -6331.299320    -6331.299319    -6331.301385  0.000079 -2.408889  0.001534
ts-Vha: -0.19139E+01 eV
Dipole moment in unit cell =      -0.0000       0.0000      -0.4275 D
Electric field for dipole correction =     0.000000    -0.000000     0.059028 eV/Ang/e
   scf:   36    -6331.299319    -6331.299319    -6331.301386  0.000020 -2.409057  0.001953
ts-Vha: -0.19143E+01 eV
Dipole moment in unit cell =      -0.0000       0.0000      -0.4278 D
Electric field for dipole correction =     0.000000    -0.000000     0.059071 eV/Ang/e
   scf:   37    -6331.299319    -6331.299319    -6331.301386  0.000017 -2.409169  0.001283
ts-Vha: -0.19135E+01 eV
Dipole moment in unit cell =      -0.0000       0.0000      -0.4275 D
Electric field for dipole correction =     0.000000    -0.000000     0.059027 eV/Ang/e
   scf:   38    -6331.299319    -6331.299319    -6331.301386  0.000019 -2.409094  0.001696
ts-Vha: -0.19133E+01 eV
Dipole moment in unit cell =      -0.0000       0.0000      -0.4276 D
Electric field for dipole correction =     0.000000    -0.000000     0.059037 eV/Ang/e
   scf:   39    -6331.299320    -6331.299319    -6331.301386  0.000022 -2.409313  0.000700

SCF Convergence by DM+H criterion
max |DM_out - DM_in|         :     0.0000223406
max |H_out - H_in|      (eV) :     0.0007003962
SCF cycle converged after 39 iterations

                     ***************************
                     *  WELCOME TO TRANSIESTA  *
                     ***************************

ts-Vha: -0.19133E+01 eV
Dipole moment in unit cell =      -0.0000       0.0000      -0.4276 D
Electric field for dipole correction =     0.000000    -0.000000     0.059037 eV/Ang/e

transiesta: created H and S sparsity pattern:
  <sparsity:(M of: G ((UC of: T T sparsity for geom step 0)))
    nrows_g=63 nrows=63 sparsity=.2686 nnzs=1066, refcount: 1>

transiesta: update sparsity pattern same as H and S.

transiesta: Determining an optimal tri-matrix using: atom+Left
transiesta: Established a near-optimal partition for the tri-diagonal matrix.
BTD partitions (2): 
  [ 22, 23 ]
transiesta: Matrix elements in % of full matrix: 100.00000 %

transiesta: mem of electrodes (static):                     0.01MB
transiesta: mem of global update arrays (static):           0.07MB
transiesta: mem of tri-diagonal matrices:                   0.06MB
transiesta: Total memory usage:                             0.14MB

transiesta: Charge distribution, target =     77.00000
Total charge                  [Q]  :     77.00000
Device                        [D]  :     21.84922
Left                          [E1] :     32.67376
Left                 / device [C1] :      0.31922
Buffer                        [B]  :     21.83792
Other                         [O]  :      0.31988
Excess charge                [dQ]  :  5.68434E-14

ts-q:         D        E1        C1         B        dQ
ts-q:    21.807    32.674     0.310    21.838 -.514E-01
ts-Vha: -0.54045E+00 eV
Dipole moment in unit cell =       0.0000      -0.0000       0.9955 D
Electric field for dipole correction =    -0.000000     0.000000    -0.137451 eV/Ang/e

siesta: Program's energy decomposition (eV):
siesta: Ebs     =      -670.372670
siesta: Eions   =      8198.574422
siesta: Ena     =       408.881455
siesta: Ekin    =      4455.450320
siesta: Enl     =     -2066.269880
siesta: Eso     =         0.000000
siesta: Edftu   =         0.000000
siesta: DEna    =        54.771860
siesta: DUscf   =         2.769773
siesta: DUext   =         0.041707
siesta: Exc     =      -987.992657
siesta: eta*DQ  =         0.000000
siesta: Emadel  =         0.000000
siesta: Emeta   =         0.000000
siesta: Emolmec =         0.000000
siesta: Ekinion =         0.000000
siesta: Eharris =     -6330.476415
siesta: Etot    =     -6330.921843
siesta: FreeEng =     -6330.921843
ts: E-dN      =         0.000000
ts: Band Stru =      -258.278469
ts: Kinetic   =      1273.490769
ts: Ion-elec  =   -137575.390015
ts: Eharris   =     -8036.203433
ts: Etot      =     -8036.648862
ts: FreeEng   =     -8036.648862

        iscf     Eharris(eV)        E_KS(eV)     FreeEng(eV)     dDmax    Ef(eV) dHmax(eV)
ts-scf:    1    -8036.203433    -8036.648862    -8036.648862  0.015165 -2.409313  5.517565
timer: Routine,Calls,Time,% = TS             1       0.549   2.40
ts-q:         D        E1        C1         B        dQ
ts-q:    21.990    32.674     0.334    21.838 0.156E+00
ts-Vha: -0.61985E+01 eV
Dipole moment in unit cell =      -0.0000       0.0000      -4.8542 D
Electric field for dipole correction =     0.000000    -0.000000     0.670216 eV/Ang/e
ts-scf:    2    -8034.107255    -8036.836156    -8036.836156  0.047927 -2.409313 17.483776
ts-q:         D        E1        C1         B        dQ
ts-q:    21.852    32.674     0.317    21.838 0.897E-03
ts-Vha: -0.19519E+01 eV
Dipole moment in unit cell =      -0.0000       0.0000      -0.4280 D
Electric field for dipole correction =     0.000000    -0.000000     0.059090 eV/Ang/e
ts-scf:    3    -8036.561484    -8037.009364    -8037.009364  0.035936 -2.409313  0.219284
ts-q:         D        E1        C1         B        dQ
ts-q:    21.850    32.674     0.317    21.838 -.164E-02
ts-Vha: -0.18819E+01 eV
Dipole moment in unit cell =      -0.0000       0.0000      -0.3315 D
Electric field for dipole correction =     0.000000    -0.000000     0.045767 eV/Ang/e
ts-scf:    4    -8036.991854    -8036.998149    -8036.998149  0.000705 -2.409313  0.138432
ts-q:         D        E1        C1         B        dQ
ts-q:    21.849    32.674     0.317    21.838 -.308E-02
ts-Vha: -0.18410E+01 eV
Dipole moment in unit cell =      -0.0000       0.0000      -0.3460 D
Electric field for dipole correction =     0.000000    -0.000000     0.047773 eV/Ang/e
ts-scf:    5    -8036.985841    -8036.991199    -8036.991199  0.000303 -2.409313  0.245307
ts-q:         D        E1        C1         B        dQ
ts-q:    21.856    32.674     0.320    21.838 0.737E-02
ts-Vha: -0.21327E+01 eV
Dipole moment in unit cell =      -0.0000       0.0000      -0.6609 D
Electric field for dipole correction =     0.000000    -0.000000     0.091244 eV/Ang/e
ts-scf:    6    -8037.083930    -8037.050757    -8037.050757  0.002186 -2.409313  0.927978
ts-q:         D        E1        C1         B        dQ
ts-q:    21.854    32.674     0.320    21.838 0.529E-02
ts-Vha: -0.20736E+01 eV
Dipole moment in unit cell =      -0.0000       0.0000      -0.5987 D
Electric field for dipole correction =     0.000000    -0.000000     0.082661 eV/Ang/e
ts-scf:    7    -8037.037645    -8037.042126    -8037.042126  0.000403 -2.409313  0.688715
ts-q:         D        E1        C1         B        dQ
ts-q:    21.849    32.674     0.319    21.838 -.233E-03
ts-Vha: -0.19121E+01 eV
Dipole moment in unit cell =      -0.0000       0.0000      -0.4183 D
Electric field for dipole correction =     0.000000    -0.000000     0.057748 eV/Ang/e
ts-scf:    8    -8037.004230    -8037.018447    -8037.018447  0.001112 -2.409313  0.028649
ts-q:         D        E1        C1         B        dQ
ts-q:    21.849    32.674     0.319    21.838 -.538E-03
ts-Vha: -0.19024E+01 eV
Dipole moment in unit cell =      -0.0000       0.0000      -0.3964 D
Electric field for dipole correction =     0.000000    -0.000000     0.054735 eV/Ang/e
ts-scf:    9    -8037.016612    -8037.017153    -8037.017153  0.000070 -2.409313  0.025164
ts-q:         D        E1        C1         B        dQ
ts-q:    21.849    32.674     0.319    21.838 -.535E-03
ts-Vha: -0.19025E+01 eV
Dipole moment in unit cell =      -0.0000       0.0000      -0.3967 D
Electric field for dipole correction =     0.000000    -0.000000     0.054775 eV/Ang/e
ts-scf:   10    -8037.017127    -8037.017143    -8037.017143  0.000009 -2.409313  0.024629
ts-q:         D        E1        C1         B        dQ
ts-q:    21.849    32.674     0.319    21.838 -.531E-03
ts-Vha: -0.19019E+01 eV
Dipole moment in unit cell =      -0.0000       0.0000      -0.3952 D
Electric field for dipole correction =     0.000000    -0.000000     0.054569 eV/Ang/e
ts-scf:   11    -8037.017938    -8037.017547    -8037.017547  0.000284 -2.409313  0.022747
ts-q:         D        E1        C1         B        dQ
ts-q:    21.849    32.674     0.319    21.838 -.530E-03
ts-Vha: -0.19019E+01 eV
Dipole moment in unit cell =      -0.0000       0.0000      -0.3953 D
Electric field for dipole correction =     0.000000    -0.000000     0.054574 eV/Ang/e
ts-scf:   12    -8037.017548    -8037.017548    -8037.017548  0.000001 -2.409313  0.022620
ts-q:         D        E1        C1         B        dQ
ts-q:    21.849    32.674     0.319    21.838 -.423E-03
ts-Vha: -0.19061E+01 eV
Dipole moment in unit cell =      -0.0000       0.0000      -0.4041 D
Electric field for dipole correction =     0.000000    -0.000000     0.055792 eV/Ang/e
ts-scf:   13    -8037.018106    -8037.017961    -8037.017961  0.000180 -2.409313  0.003762
ts-q:         D        E1        C1         B        dQ
ts-q:    21.849    32.674     0.319    21.838 -.415E-03
ts-Vha: -0.19062E+01 eV
Dipole moment in unit cell =      -0.0000       0.0000      -0.4045 D
Electric field for dipole correction =     0.000000    -0.000000     0.055853 eV/Ang/e
ts-scf:   14    -8037.018320    -8037.018151    -8037.018151  0.000049 -2.409313  0.003868
ts-q:         D        E1        C1         B        dQ
ts-q:    21.849    32.674     0.319    21.838 -.412E-03
ts-Vha: -0.19061E+01 eV
Dipole moment in unit cell =      -0.0000       0.0000      -0.4048 D
Electric field for dipole correction =     0.000000    -0.000000     0.055890 eV/Ang/e
ts-scf:   15    -8037.018973    -8037.018566    -8037.018566  0.000121 -2.409313  0.003630
ts-q:         D        E1        C1         B        dQ
ts-q:    21.849    32.674     0.319    21.838 -.407E-03
ts-Vha: -0.19062E+01 eV
Dipole moment in unit cell =      -0.0000       0.0000      -0.4051 D
Electric field for dipole correction =     0.000000    -0.000000     0.055927 eV/Ang/e
ts-scf:   16    -8037.018764    -8037.018671    -8037.018671  0.000039 -2.409313  0.003150
ts-q:         D        E1        C1         B        dQ
ts-q:    21.849    32.674     0.319    21.838 -.409E-03
ts-Vha: -0.19061E+01 eV
Dipole moment in unit cell =      -0.0000       0.0000      -0.4049 D
Electric field for dipole correction =     0.000000    -0.000000     0.055907 eV/Ang/e
ts-scf:   17    -8037.018941    -8037.018804    -8037.018804  0.000276 -2.409313  0.002881
ts-q:         D        E1        C1         B        dQ
ts-q:    21.849    32.674     0.319    21.838 -.386E-03
ts-Vha: -0.19065E+01 eV
Dipole moment in unit cell =      -0.0000       0.0000      -0.4060 D
Electric field for dipole correction =     0.000000    -0.000000     0.056063 eV/Ang/e
ts-scf:   18    -8037.019213    -8037.019037    -8037.019037  0.000155 -2.409313  0.002339
ts-q:         D        E1        C1         B        dQ
ts-q:    21.849    32.674     0.319    21.838 -.390E-03
ts-Vha: -0.19064E+01 eV
Dipole moment in unit cell =      -0.0000       0.0000      -0.4058 D
Electric field for dipole correction =     0.000000    -0.000000     0.056023 eV/Ang/e
ts-scf:   19    -8037.018873    -8037.018950    -8037.018950  0.000021 -2.409313  0.001212
ts-q:         D        E1        C1         B        dQ
ts-q:    21.849    32.674     0.319    21.838 -.391E-03
ts-Vha: -0.19063E+01 eV
Dipole moment in unit cell =      -0.0000       0.0000      -0.4057 D
Electric field for dipole correction =     0.000000    -0.000000     0.056017 eV/Ang/e
ts-scf:   20    -8037.018925    -8037.018937    -8037.018937  0.000022 -2.409313  0.000693

SCF Convergence by DM+H+dQ criterion
max |DM_out - DM_in|         :     0.0000217846
max |H_out - H_in|      (eV) :     0.0006933685
     Q(TS) - Q(dev)          :    -0.0003907048
SCF cycle converged after 20 iterations

Using DM_out to compute the final energy and forces
No. of atoms with KB's overlaping orbs in proc 0. Max # of overlaps:      43     237
ts-Vha: -0.19063E+01 eV
Dipole moment in unit cell =      -0.0000       0.0000      -0.4057 D
Electric field for dipole correction =     0.000000    -0.000000     0.056017 eV/Ang/e

siesta: E_KS(eV) =            -6331.2919

siesta: E_KS - E_eggbox =     -6331.2919

siesta: Atomic forces (eV/Ang):
----------------------------------------
   Tot   -0.000000    0.000000    0.004185
----------------------------------------
   Max    0.289586
   Res    0.087932    sqrt( Sum f_i^2 / 3N )
----------------------------------------
   Max    0.289586    constrained

ts: Atomic forces (eV/Ang):
----------------------------------------
   Tot   -0.000000    0.000000   -0.277079
----------------------------------------
   Max    0.270492
   Res    0.078108    sqrt( Sum f_i^2 / 3N )
----------------------------------------
   Max    0.270492    constrained

Stress tensor Voigt[x,y,z,yz,xz,xy] (kbar):       28.79       28.79       14.46       -0.00        0.00       -0.00
(Free)E + p*V (eV/cell)    -6335.3821
Target enthalpy (eV/cell)    -6331.2919

mulliken: Atomic and Orbital Populations:

Species: Au                  
Atom  Qatom  Qorb
               6s      5dxy    5dyz    5dz2    5dxz    5dx2-y2 6Ppy    6Ppz    
               6Ppx    
   1 10.996   0.997   1.908   1.922   1.887   1.922   1.908   0.153   0.147
              0.153
   2 11.002   1.005   1.906   1.920   1.890   1.920   1.906   0.153   0.149
              0.153
   3 10.996   0.997   1.908   1.922   1.887   1.922   1.908   0.153   0.146
              0.153
   4 10.977   0.994   1.907   1.927   1.888   1.927   1.907   0.146   0.134
              0.146
   5 11.032   1.062   1.891   1.938   1.926   1.938   1.891   0.138   0.112
              0.138
   6 11.022   1.059   1.891   1.938   1.925   1.938   1.891   0.136   0.107
              0.136
   7 10.976   0.994   1.906   1.928   1.886   1.928   1.906   0.147   0.135
              0.147

mulliken: Qtot =       77.000

transiesta: Charge distribution, target =     77.00000
Total charge                  [Q]  :     76.99961
Device                        [D]  :     21.84865
Left                          [E1] :     32.67376
Left                 / device [C1] :      0.31940
Buffer                        [B]  :     21.83792
Other                         [O]  :      0.31988
Excess charge                [dQ]  : -3.90705E-04


coxmol: Writing XMOL coordinates into file au_111_capacitor_single.xyz                                         

siesta: Program's energy decomposition (eV):
siesta: Ebs     =      -496.179582
siesta: Eions   =      8198.574422
siesta: Ena     =       408.881455
siesta: Ekin    =      4456.973718
siesta: Enl     =     -2066.637479
siesta: Eso     =         0.000000
siesta: Edftu   =         0.000000
siesta: DEna    =        54.105168
siesta: DUscf   =         2.662253
siesta: DUext   =        -0.008827
siesta: Exc     =      -988.693785
siesta: eta*DQ  =         0.000000
siesta: Emadel  =         0.000000
siesta: Emeta   =         0.000000
siesta: Emolmec =         0.000000
siesta: Ekinion =         0.000000
siesta: Eharris =     -6331.291907
siesta: Etot    =     -6331.291918
siesta: FreeEng =     -6331.291918
ts: E-dN      =         0.000000
ts: Band Stru =      -141.679600
ts: Kinetic   =      1275.014167
ts: Ion-elec  =   -137751.065656
ts: Eharris   =     -8037.018925
ts: Etot      =     -8037.018937
ts: FreeEng   =     -8037.018937

siesta: Final energy (eV):
siesta:  Band Struct. =    -496.179582
siesta:       Kinetic =    4456.973718
siesta:       Hartree =   67784.068744
siesta:       Edftu   =       0.000000
siesta:       Eso     =       0.000000
siesta:    Ext. field =      -0.008827
siesta:   Exch.-corr. =    -988.693785
siesta:  Ion-electron = -139227.298189
siesta:       Ion-ion =   61643.666420
siesta:       Ekinion =       0.000000
siesta:         Total =   -6331.291918
ts:         E-dN  =       0.000000
ts:     Band Stru =    -141.679600
ts:       Kinetic =    1275.014167
ts:      Ion-elec = -137751.065656
ts:         Total =   -8037.018937
siesta:         Fermi =      -2.409313

siesta: Atomic forces (eV/Ang):
siesta:      1   -0.000000    0.000000   -0.056676
siesta:      2   -0.000000   -0.000000    0.018246
siesta:      3   -0.000000    0.000000    0.040587
siesta:      4   -0.000000    0.000000   -0.270492
siesta:      5   -0.000000    0.000000   -0.006587
siesta:      6   -0.000000    0.000000   -0.010480
siesta:      7   -0.000000    0.000000    0.289586
siesta: ----------------------------------------
siesta:    Tot   -0.000000    0.000000    0.004185

ts: Atomic forces (eV/Ang):
ts:      1    0.000000    0.000000    0.000000
ts:      2    0.000000    0.000000    0.000000
ts:      3    0.000000    0.000000    0.000000
ts:      4   -0.000000    0.000000   -0.270492
ts:      5   -0.000000    0.000000   -0.006587
ts:      6    0.000000    0.000000    0.000000
ts:      7    0.000000    0.000000    0.000000
ts: ----------------------------------------
ts:    Tot   -0.000000    0.000000   -0.277079

siesta: Stress tensor (static) (eV/Ang**3):
siesta:     0.017972   -0.000000    0.000000
siesta:    -0.000000    0.017972   -0.000000
siesta:     0.000000   -0.000000    0.009028

siesta: Cell volume =        272.856698 Ang**3

siesta: Pressure (static):
siesta:                Solid            Molecule  Units
siesta:          -0.00016326         -0.00013115  Ry/Bohr**3
siesta:          -0.01499036         -0.01204196  eV/Ang**3
siesta:         -24.01746438        -19.29355159  kBar
(Free)E+ p_basis*V_orbitals  =       -6326.441453
(Free)Eharris+ p_basis*V_orbitals  =       -6326.441441

siesta: Electric dipole (a.u.)  =   -0.000000    0.000000   -0.159620
siesta: Electric dipole (Debye) =   -0.000000    0.000000   -0.405714
ts-Vha: -0.19063E+01 eV
Dipole moment in unit cell =      -0.0000       0.0000      -0.4057 D
Electric field for dipole correction =     0.000000    -0.000000     0.056017 eV/Ang/e

dhscf: Vacuum level (max, mean) =    4.030880    2.626864 eV

cite: Please see "au_111_capacitor_single.bib" for an exhaustive BiBTeX file.
cite: Please clearly indicate Siesta version in published work: v4.1-b4-351
cite: This calculation has made use of the following articles
cite: which are encouraged to be cited in a published work.
        Primary SIESTA paper
          DOI: www.doi.org/10.1088/0953-8984/14/11/302
        Primary TranSiesta paper
          DOI: www.doi.org/10.1103/PhysRevB.65.165401
        TranSiesta N-electrode
          DOI: www.doi.org/10.1016/j.cpc.2016.09.022

>> End of run:  22-JAN-2021  23:44:07
Job completed
