Siesta Version: siesta-3.2
Architecture  : SIESTA_ARCH
Compiler flags: FFLAGS
PARALLEL version
TRANSIESTA support
NetCDF support

* Running on    4 nodes in parallel
>> Start of run:  24-MAR-2013  13:33:03

                           ***********************       
                           *  WELCOME TO SIESTA  *       
                           ***********************       

reinit: Reading from standard input
************************** Dump of input data file ****************************
SystemName  bulk_au_111
SystemLabel bulk_au_111
==================================================
==================================================
# SPECIES AND BASIS
# Number of species
NumberOfSpecies 1
%block ChemicalSpeciesLabel
  1  79 Au
%endblock ChemicalSpeciesLabel
PAO.BasisSize    SZP
PAO.EnergyShift  0.005 Ry
==================================================
==================================================
# K-points
%block kgrid_Monkhorst_Pack
8   0   0   0.0
0   8   0   0.0
0   0   60  0.5
%endblock kgrid_Monkhorst_Pack
==================================================
==================================================
# UNIT CELL AND ATOMIC POSITIONS
# UNIT CELL
LatticeConstant       2.92311 Ang
%block LatticeVectors
1.000000000   0.00000000000   0.0000000000
0.500000000   0.86602540378   0.0000000000
0.000000000   0.00000000000   2.4494897428
%endblock LatticeVectors
# Atomic coordinates
NumberOfAtoms 3
AtomicCoordinatesFormat ScaledCartesian
%block AtomicCoordinatesAndAtomicSpecies
       0.000000000       0.000000000       0.000000000    1
       0.500000000       0.288675135       0.816496581    1
       0.500000000      -0.288675135       1.632993162    1
%endblock AtomicCoordinatesAndAtomicSpecies
%block SuperCell
1 0 0
0 1 0
0 0 3
%endblock SuperCell
==================================================
==================================================
# General variables
ElectronicTemperature  100 K
MeshCutoff           350. Ry
xc.functional         LDA           # Exchange-correlation functional
xc.authors            CA
SpinPolarized .false.
SolutionMethod Transiesta
==================================================
==================================================
# SCF variables
DM.MixSCF1   T
MaxSCFIterations      300           # Maximum number of SCF iter
DM.MixingWeight       0.03          # New DM amount for next SCF cycle
DM.Tolerance          1.d-4         # Tolerance in maximum difference
DM.UseSaveDM          true          # to use continuation files
DM.NumberPulay         5
Diag.DivideAndConquer  no
Diag.ParallelOverK     yes
==================================================
==================================================
# MD variables
MD.FinalTimeStep 1
MD.TypeOfRun CG
MD.NumCGsteps     000
MD.UseSaveXV      .true.
==================================================
==================================================
# Output variables
WriteMullikenPop                1
WriteBands                      .false.
SaveRho                         .false.
SaveDeltaRho                    .false.
SaveHS                          .false.
SaveElectrostaticPotential      True
SaveTotalPotential              no
WriteCoorXmol                   .true.
WriteMDXmol                     .true.
WriteMDhistory                  .false.
WriteEigenvalues                yes
==================================================
==================================================
# Transiesta information
# GF OPTIONS
TS.ComplexContour.Emin    -30.0 eV
TS.ComplexContour.NPoles       03
TS.ComplexContour.NCircle      30
TS.ComplexContour.NLine        10
# BIAS OPTIONS
TS.biasContour.NumPoints       00
# TS OPTIONS
TS.Voltage 0.000000 eV
# TBT OPTIONS
TS.TBT.Emin -0.5 eV
TS.TBT.Emax +0.5 eV
TS.TBT.NPoints 100
TS.TBT.NEigen 3
TS.TBT.Eta        0.000001 Ry
# Write hamiltonian
TS.SaveHS   .true.
# LEFT ELECTRODE
TS.HSFileLeft  ./elec_au_111_abc.TSHS
TS.ReplicateA1Left    1
TS.ReplicateA2Left    1
TS.NumUsedAtomsLeft   03
TS.BufferAtomsLeft    0
# RIGHT ELECTRODE
TS.HSFileRight  ./elec_au_111_abc.TSHS
TS.ReplicateA1Right   1
TS.ReplicateA2Right   1
TS.NumUsedAtomsRight  03
TS.BufferAtomsRight   0
==================================================
==================================================
************************** End of input data file *****************************

reinit: -----------------------------------------------------------------------
reinit: System Name: bulk_au_111
reinit: -----------------------------------------------------------------------
reinit: System Label: bulk_au_111                                                 
reinit: -----------------------------------------------------------------------

initatom: Reading input for the pseudopotentials and atomic orbitals ----------
 Species number:            1  Label: Au Atomic number:          79
Ground state valence configuration:   6s01  5d10
Reading pseudopotential information in formatted form from Au.psf

Pseudopotential generated from a relativistic atomic calculation
There are spin-orbit pseudopotentials available
Spin-orbit interaction is not included in this calculation

Valence configuration for pseudopotential generation:
6s( 1.00) rc: 2.32
6p( 0.00) rc: 2.32
5d(10.00) rc: 2.32
5f( 0.00) rc: 2.32
For Au, standard SIESTA heuristics set lmxkb to 3
 (one more than the basis l, including polarization orbitals).
Use PS.lmax or PS.KBprojectors blocks to override.

<basis_specs>
===============================================================================
Au                   Z=  79    Mass=  196.97        Charge= 0.17977+309
Lmxo=2 Lmxkb= 3    BasisType=split      Semic=F
L=0  Nsemic=0  Cnfigmx=6
          n=1  nzeta=1  polorb=1
            splnorm:   0.15000    
               vcte:    0.0000    
               rinn:    0.0000    
                rcs:    0.0000    
            lambdas:    1.0000    
L=1  Nsemic=0  Cnfigmx=6
L=2  Nsemic=0  Cnfigmx=5
          n=1  nzeta=1  polorb=0
            splnorm:   0.15000    
               vcte:    0.0000    
               rinn:    0.0000    
                rcs:    0.0000    
            lambdas:    1.0000    
-------------------------------------------------------------------------------
L=0  Nkbl=1  erefs: 0.17977+309
L=1  Nkbl=1  erefs: 0.17977+309
L=2  Nkbl=1  erefs: 0.17977+309
L=3  Nkbl=1  erefs: 0.17977+309
===============================================================================
</basis_specs>

atom: Called for Au                    (Z =  79)

read_vps: Pseudopotential generation method:
read_vps: ATM3      Troullier-Martins                       
Total valence charge:   11.00000

xc_check: Exchange-correlation functional:
xc_check: Ceperley-Alder
V l=0 = -2*Zval/r beyond r=  3.7361
V l=1 = -2*Zval/r beyond r=  3.7361
V l=2 = -2*Zval/r beyond r=  3.7361
V l=3 = -2*Zval/r beyond r=  3.7361
All V_l potentials equal beyond r=  2.2946
This should be close to max(r_c) in ps generation
All pots = -2*Zval/r beyond r=  3.7361
Using large-core scheme for Vlocal

atom: Estimated core radius    3.73611

atom: Including non-local core corrections could be a good idea
atom: Maximum radius for 4*pi*r*r*local-pseudopot. charge    4.07775
atom: Maximum radius for r*vlocal+2*Zval:    3.78310
GHOST: No ghost state for L =  0
GHOST: No ghost state for L =  1
GHOST: No ghost state for L =  2
GHOST: No ghost state for L =  3

KBgen: Kleinman-Bylander projectors: 
   l= 0   rc=  2.382235   el= -0.445645   Ekb=  4.511922   kbcos=  0.274440
   l= 1   rc=  2.382235   el= -0.065316   Ekb=  2.560647   kbcos=  0.223707
   l= 2   rc=  2.382235   el= -0.526293   Ekb= -5.024070   kbcos= -0.676934
   l= 3   rc=  2.382235   el=  0.003438   Ekb= -2.070042   kbcos= -0.013117

KBgen: Total number of  Kleinman-Bylander projectors:   16
atom: -------------------------------------------------------------------------

atom: SANKEY-TYPE ORBITALS:

SPLIT: Orbitals with angular momentum L= 0

SPLIT: Basis orbitals for state 6s

SPLIT: PAO cut-off radius determined from an
SPLIT: energy shift=  0.005000 Ry

   izeta = 1
                 lambda =    1.000000
                     rc =    7.246712
                 energy =   -0.441368
                kinetic =    0.367640
    potential(screened) =   -0.809008
       potential(ionic) =   -8.408267

SPLIT: Orbitals with angular momentum L= 2

SPLIT: Basis orbitals for state 5d

SPLIT: PAO cut-off radius determined from an
SPLIT: energy shift=  0.005000 Ry

   izeta = 1
                 lambda =    1.000000
                     rc =    5.106662
                 energy =   -0.521343
                kinetic =    4.852314
    potential(screened) =   -5.373657
       potential(ionic) =  -16.114240

POLgen: Perturbative polarization orbital with L=  1

POLgen: Polarization orbital for state 6s

   izeta = 1
                     rc =    7.246712
                 energy =   -0.107868
                kinetic =    0.647525
    potential(screened) =   -0.755394
       potential(ionic) =   -7.869443
atom: Total number of Sankey-type orbitals:  9

atm_pop: Valence configuration (for local Pseudopot. screening):
 6s( 1.00)                                                            
 6p( 0.00)                                                            
 5d(10.00)                                                            
Vna: chval, zval:   11.00000  11.00000

Vna:  Cut-off radius for the neutral-atom potential:   7.246712

atom: _________________________________________________________________________

prinput: Basis input ----------------------------------------------------------

PAO.BasisType split     

%block ChemicalSpeciesLabel
    1   79 Au                      # Species index, atomic number, species label
%endblock ChemicalSpeciesLabel

%block PAO.Basis                 # Define Basis set
Au                    2                    # Species label, number of l-shells
 n=6   0   1 P   1                   # n, l, Nzeta, Polarization, NzetaPol
   7.247   
   1.000   
 n=5   2   1                         # n, l, Nzeta 
   5.107   
   1.000   
%endblock PAO.Basis

prinput: ----------------------------------------------------------------------

Dumping basis to NetCDF file Au.ion.nc
coor:   Atomic-coordinates input format  =     Cartesian coordinates
coor:                                          (in units of alat)

siesta: WARNING: XV file not found

siesta: Atomic coordinates (Bohr) and species
siesta:      0.00000   0.00000   0.00000  1        1
siesta:      2.76194   1.59461   4.51023  1        2
siesta:      2.76194  -1.59461   9.02046  1        3
siesta:      0.00000   0.00000  13.53069  1        4
siesta:      2.76194   1.59461  18.04092  1        5
siesta:      2.76194  -1.59461  22.55114  1        6
siesta:      0.00000   0.00000  27.06137  1        7
siesta:      2.76194   1.59461  31.57160  1        8
siesta:      2.76194  -1.59461  36.08183  1        9

siesta: System type = bulk      

initatomlists: Number of atoms, orbitals, and projectors:      9    81   144

siesta: ******************** Simulation parameters ****************************
siesta:
siesta: The following are some of the parameters of the simulation.
siesta: A complete list of the parameters used, including default values,
siesta: can be found in file out.fdf
siesta:
redata: Non-Collinear-spin run           =     F
redata: SpinPolarized (Up/Down) run      =     F
redata: Number of spin components        =     1
redata: Long output                      =     F
redata: Number of Atomic Species         =        1
redata: Charge density info will appear in .RHO file
redata: Write Mulliken Pop.              =     Atomic and Orbital charges
redata: Mesh Cutoff                      =   350.0000  Ry
redata: Net charge of the system         =     0.0000 |e|
redata: Max. number of SCF Iter          =      300
redata: Performing Pulay mixing using    =     5 iterations
redata: Mix DM in first SCF step ?       =     T
redata: Write Pulay info on disk?        =     F
redata: Discard 1st Pulay DM after  kick =     F
redata: New DM Mixing Weight             =     0.0300
redata: New DM Occupancy tolerance       = 0.000000000001
redata: No kicks to SCF
redata: DM Mixing Weight for Kicks       =     0.5000
redata: DM Tolerance for SCF             =     0.000100
redata: Require Energy convergence for SCF =     F
redata: DM Energy tolerance for SCF      =     0.000100 eV
redata: Require Harris convergence for SCF =     F
redata: DM Harris energy tolerance for SCF =     0.000100 eV
redata: Using Saved Data (generic)   =     F
redata: Use continuation files for DM    =     T
redata: Neglect nonoverlap interactions  =     F
redata: Method of Calculation            =         Transiesta
redata: Fix the spin of the system       =     F
redata: Dynamics option                  =     CG coord. optimization
redata: Variable cell                    =     F
redata: Use continuation files for CG    =     F
redata: Max atomic displ per move        =     0.2000  Bohr
redata: Maximum number of CG moves       =        0
redata: Force tolerance                  =     0.0016  Ry/Bohr
redata: ***********************************************************************

ts_read_options: **************************************************************
ts_read_options: Save H and S matrices        =    T
ts_read_options: Mixing Hamiltonian           =    F
ts_read_options: TranSIESTA Voltage           =    0.0000 Volts
ts_read_options: TriDiag                      =    F
ts_read_options: Update DM Contact Reg. only  =    T
ts_read_options: N. Buffer At. Left           =    0
ts_read_options: N. Buffer At. Right          =    0
ts_read_options: N. Pts. Circle               =   30
ts_read_options: N. Pts. Line                 =   10
ts_read_options: N. Poles in Contour          =    3
ts_read_options: N. Pts. Bias Contour         =    0
ts_read_options: Contour E Min.               =   -2.2049 Ry
ts_read_options: GFEta                        =    0.000001 Ry
ts_read_options: Electronic Temperature       =    0.0006 Ry
ts_read_options: Bias Contour Method         =    gaussfermi          
ts_read_options: Left GF File                =    Left.GF                          
ts_read_options: Right GF File               =    Right.GF                         
ts_read_options: Calculate GF                 =    T
ts_read_options: Save S and quit (onlyS)      =    F
ts_read_options: **************************************************************

************************ Begin: TS CHECKS AND WARNINGS ************************
************************ End: TS CHECKS AND WARNINGS **************************

Total number of electrons:    99.000000
Total ionic charge:    99.000000

* ProcessorY, Blocksize:    2  21

k-point displ. along   1 input, could be:     0.00    0.50
k-point displ. along   2 input, could be:     0.00    0.50
 Kpoints in:         1920 . Kpoints trimmed:         1920

siesta: k-grid: Number of k-points =  1920
siesta: k-grid: Cutoff (effective) =    11.692 Ang
siesta: k-grid: Supercell and displacements
siesta: k-grid:    8   0   0      0.000
siesta: k-grid:    0   8   0      0.000
siesta: k-grid:    0   0  60      0.500
k-point displ. along   1 input, could be:     0.00    0.50
k-point displ. along   2 input, could be:     0.00    0.50
 Kpoints in:           40 . Kpoints trimmed:           37

transiesta: ts_k-grid: Number of Transport k-points =    37
transiesta: ts_k-grid: Supercell and displacements
transiesta: ts_k-grid:    8   0   0      0.000
transiesta: ts_k-grid:    0   8   0      0.000

Naive supercell factors:     7    7    1

superc: Internal auxiliary supercell:     7 x     7 x     1  =      49
superc: Number of atoms, orbitals, and projectors:    441   3969   7056

* Maximum dynamic memory allocated =     3 MB

siesta:                 ==============================
                            Begin CG move =      0
                        ==============================

superc: Internal auxiliary supercell:     7 x     7 x     1  =      49
superc: Number of atoms, orbitals, and projectors:    441   3969   7056

outcell: Unit cell vectors (Ang):
        2.923110    0.000000    0.000000
        1.461555    2.531488    0.000000
        0.000000    0.000000   21.480384

outcell: Cell vector modules (Ang)   :    2.923110    2.923110   21.480384
outcell: Cell angles (23,13,12) (deg):     90.0000     90.0000     60.0000
outcell: Cell volume (Ang**3)        :    158.9509
New_DM. Step:     1
Initializing Density Matrix...
TRANSIESTA: No TS-DensityMatrix file found
TRANSIESTA: Initialization runs using diagon

InitMesh: MESH =    30 x    30 x   250 =      225000
InitMesh: Mesh cutoff (required, used) =   350.000   374.367 Ry

* Maximum dynamic memory allocated =    53 MB

stepf: Fermi-Dirac step function

siesta: Program's energy decomposition (eV):
siesta: Ebs     =      -646.221097
siesta: Eions   =     10541.024256
siesta: Ena     =       524.239359
siesta: Ekin    =      5986.831336
siesta: Enl     =     -2812.095939
siesta: DEna    =         0.000002
siesta: DUscf   =         0.000000
siesta: DUext   =         0.000000
siesta: Exc     =     -1301.466665
siesta: eta*DQ  =         0.000000
siesta: Emadel  =         0.000000
siesta: Emeta   =         0.000000
siesta: Emolmec =         0.000000
siesta: Ekinion =         0.000000
siesta: Eharris =     -8145.893437
siesta: Etot    =     -8143.516163
siesta: FreeEng =     -8143.516163

siesta: iscf   Eharris(eV)      E_KS(eV)   FreeEng(eV)   dDmax  Ef(eV)
siesta:    1    -8145.8934    -8143.5162    -8143.5162  0.2202 -2.4745
timer: Routine,Calls,Time,% = IterSCF        1      94.591  97.41
elaps: Routine,Calls,Wall,% = IterSCF        1      23.671  97.38
siesta:    2    -8145.5751    -8143.5874    -8143.5874  0.2167 -2.4925
siesta:    3    -8142.1997    -8141.8750    -8141.8750  0.1096 -2.8323
siesta:    4    -8142.1546    -8141.9615    -8141.9615  0.0975 -2.8140
siesta:    5    -8142.0969    -8141.9265    -8141.9265  0.0148 -2.8349
siesta:    6    -8142.0950    -8141.9222    -8141.9222  0.0019 -2.8043
siesta:    7    -8142.0949    -8141.9326    -8141.9326  0.0011 -2.8044
siesta:    8    -8142.0948    -8141.9509    -8141.9509  0.0008 -2.8014
siesta:    9    -8142.0947    -8141.9885    -8141.9885  0.0008 -2.8018
siesta:   10    -8142.0947    -8142.0455    -8142.0455  0.0007 -2.8000
siesta:   11    -8142.0948    -8142.0683    -8142.0683  0.0005 -2.8004
siesta:   12    -8142.0948    -8142.0759    -8142.0759  0.0003 -2.8020
siesta:   13    -8142.0948    -8142.0784    -8142.0784  0.0002 -2.8020
siesta:   14    -8142.0948    -8142.0795    -8142.0795  0.0002 -2.8024
siesta:   15    -8142.0947    -8142.0828    -8142.0828  0.0001 -2.8020

                          ************************       
                          *   TRANSIESTA BEGIN   *       
                          ************************       
 contour:  Residuals: 
 contour:      0.00000      0.00199      0.000000000     0.003979496   1
 contour:      0.00000      0.00597      0.000000000     0.003979496   2
 contour:      0.00000      0.00995      0.000000000     0.003979496   3
 contour:  Fermi Line: 
 contour:      0.01404      0.01194     -0.000000000    -0.000000000   1
 contour:      0.00906      0.01194     -0.000000003    -0.000000000   2
 contour:      0.00549      0.01194     -0.000000534    -0.000000000   3
 contour:      0.00277      0.01194     -0.000029330    -0.000000000   4
 contour:      0.00073      0.01194     -0.000426928    -0.000000000   5
 contour:     -0.00095      0.01194     -0.001357550    -0.000000000   6
 contour:     -0.00263      0.01194     -0.001649495    -0.000000000   7
 contour:     -0.00421      0.01194     -0.001427686    -0.000000000   8
 contour:     -0.00543      0.01194     -0.000994590    -0.000000000   9
 contour:     -0.00616      0.01194     -0.000447478    -0.000000000  10
 contour:  Circle: 
 contour:     -0.00640      0.01728     -0.000215126     0.013710786   1
 contour:     -0.00700      0.04003     -0.001157073     0.031756715   2
 contour:     -0.00923      0.08066     -0.003634542     0.049401014   3
 contour:     -0.01504      0.13857     -0.008415965     0.066235554   4
 contour:     -0.02704      0.21269     -0.016114794     0.081720641   5
 contour:     -0.04837      0.30133     -0.027118691     0.095148678   6
 contour:     -0.08241      0.40202     -0.041517660     0.105668982   7
 contour:     -0.13245      0.51139     -0.059042090     0.112355286   8
 contour:     -0.20132      0.62515     -0.079026526     0.114312802   9
 contour:     -0.29098      0.73819     -0.100415832     0.110813590  10
 contour:     -0.40216      0.84481     -0.121826529     0.101440259  11
 contour:     -0.53411      0.93911     -0.141667241     0.086211518  12
 contour:     -0.68443      1.01546     -0.158309667     0.065661390  13
 contour:     -0.84917      1.06901     -0.170288177     0.040848962  14
 contour:     -1.02308      1.09623     -0.176495843     0.013287325  15
 contour:     -1.20003      1.09527     -0.176341138    -0.015203238  16
 contour:     -1.37363      1.06616     -0.169834526    -0.042695837  17
 contour:     -1.53778      1.01082     -0.157587267    -0.067376718  18
 contour:     -1.68726      0.93285     -0.140722653    -0.087744902  19
 contour:     -1.81818      0.83712     -0.120717731    -0.102757281  20
 contour:     -1.92820      0.72930     -0.099206504    -0.111897544  21
 contour:     -2.01662      0.61529     -0.077780459    -0.115164267  22
 contour:     -2.08425      0.50079     -0.057818460    -0.112989841  23
 contour:     -2.13310      0.39088     -0.040367675    -0.106113622  24
 contour:     -2.16605      0.28983     -0.026083803    -0.095437569  25
 contour:     -2.18642      0.20096     -0.015226380    -0.081890824  26
 contour:     -2.19761      0.12672     -0.007696168    -0.066323044  27
 contour:     -2.20279      0.06875     -0.003097869    -0.049437567  28
 contour:     -2.20458      0.02810     -0.000812334    -0.031767873  29
 contour:     -2.20493      0.00535     -0.000066680    -0.013712003  30
          43  energy points
          43          43
 ----- DISTRIBUTION OF ENERGY POINTS AMONG PROCESSORS -----
  Node Point  Part Read-ins         ZEnergy                 Weight
    0     1     N      4       0.00000   0.00199      -0.00000  -0.00398
    1     1     N      4       0.00000   0.00597      -0.00000  -0.00398
    2     1     N      4       0.00000   0.00995      -0.00000  -0.00398
    3     1     N      4       0.01404   0.01194       0.00000   0.00000
    0     2     N      4       0.00906   0.01194       0.00000   0.00000
    1     2     N      4       0.00549   0.01194       0.00000   0.00000
    2     2     N      4       0.00277   0.01194       0.00003   0.00000
    3     2     N      4       0.00073   0.01194       0.00043   0.00000
    0     3     N      4      -0.00095   0.01194       0.00136   0.00000
    1     3     N      4      -0.00263   0.01194       0.00165   0.00000
    2     3     N      4      -0.00421   0.01194       0.00143   0.00000
    3     3     N      4      -0.00543   0.01194       0.00099   0.00000
    0     4     N      4      -0.00616   0.01194       0.00045   0.00000
    1     4     N      4      -0.00640   0.01728       0.00022  -0.01371
    2     4     N      4      -0.00700   0.04003       0.00116  -0.03176
    3     4     N      4      -0.00923   0.08066       0.00363  -0.04940
    0     5     N      4      -0.01504   0.13857       0.00842  -0.06624
    1     5     N      4      -0.02704   0.21269       0.01611  -0.08172
    2     5     N      4      -0.04837   0.30133       0.02712  -0.09515
    3     5     N      4      -0.08241   0.40202       0.04152  -0.10567
    0     6     N      4      -0.13245   0.51139       0.05904  -0.11236
    1     6     N      4      -0.20132   0.62515       0.07903  -0.11431
    2     6     N      4      -0.29098   0.73819       0.10042  -0.11081
    3     6     N      4      -0.40216   0.84481       0.12183  -0.10144
    0     7     N      4      -0.53411   0.93911       0.14167  -0.08621
    1     7     N      4      -0.68443   1.01546       0.15831  -0.06566
    2     7     N      4      -0.84917   1.06901       0.17029  -0.04085
    3     7     N      4      -1.02308   1.09623       0.17650  -0.01329
    0     8     N      4      -1.20003   1.09527       0.17634   0.01520
    1     8     N      4      -1.37363   1.06616       0.16983   0.04270
    2     8     N      4      -1.53778   1.01082       0.15759   0.06738
    3     8     N      4      -1.68726   0.93285       0.14072   0.08774
    0     9     N      4      -1.81818   0.83712       0.12072   0.10276
    1     9     N      4      -1.92820   0.72930       0.09921   0.11190
    2     9     N      4      -2.01662   0.61529       0.07778   0.11516
    3     9     N      4      -2.08425   0.50079       0.05782   0.11299
    0    10     N      4      -2.13310   0.39088       0.04037   0.10611
    1    10     N      4      -2.16605   0.28983       0.02608   0.09544
    2    10     N      4      -2.18642   0.20096       0.01523   0.08189
    3    10     N      4      -2.19761   0.12672       0.00770   0.06632
    0    11     N      3      -2.20279   0.06875       0.00310   0.04944
    1    11     N      3      -2.20458   0.02810       0.00081   0.03177
    2    11     N      3      -2.20493   0.00535       0.00007   0.01371
    3    11     N      3      -2.20493   0.00535       0.00000   0.00000
 Total no. points:            44
 Total no. points to read:            43          43
 ----------------------------------------------------------
 Begin LEFT  
 unit cell:
  5.5239  0.0000  0.0000
  2.7619  4.7838  0.0000
  0.0000  0.0000 13.5307
 Size:          729
 Efermi:    0.0000000000000000     
 GF: Spin number ->            1
 Got LEFT   Electrode GF
 Done 
 Begin RIGHT 
 unit cell:
  5.5239  0.0000  0.0000
  2.7619  4.7838  0.0000
  0.0000  0.0000 13.5307
 Size:          729
 Efermi:   -0.0000000000000000     
 GF: Spin number ->            1
 Got RIGHT  Electrode GF
 Done 
 L-ELEC: lastoL:            0           9          18          27
 R-ELEC: lastoR:            0           9          18          27
 TRANSIESTA: Initializing lists
From SIESTA: Efermi=  -2.802
qc0 :   0.000
qcn0 :  66.305
 nou,NGL,NGR:          81          27          27
TranSiesta: Qsol,Qtot:   99.000   99.000    1.000

transiesta: TSiscf   Eharris(eV)      E_KS(eV)   FreeEng(eV)   dDmax  Ef(eV)
transiesta:   1    -8142.0863    -8142.0831    -8142.0831  0.0001 -2.8020
timer: Routine,Calls,Time,% = IterSCF       16    1129.823  92.52
elaps: Routine,Calls,Wall,% = IterSCF       16     282.848  92.47
timer: Routine,Calls,Time,% = TS             1      82.789   6.78
elaps: Routine,Calls,Wall,% = TS             1      20.852   6.82

siesta: E_KS(eV) =            -8142.0832

siesta: E_KS - E_eggbox =     -8142.0832

siesta: Atomic forces (eV/Ang):
----------------------------------------
   Tot    0.000017   -0.000015   -0.000093
----------------------------------------
   Max    0.001300
   Res    0.000369    sqrt( Sum f_i^2 / 3N )
----------------------------------------
   Max    0.001300    constrained

Stress-tensor-Voigt (kbar):       26.22       26.23       52.97       -0.00       -0.00        0.00
(Free)E + p*V (eV/cell)    -8145.5692
Target enthalpy (eV/cell)    -8142.0832

mulliken: Mulliken Atomic and Orbital Populations:

Species: Au                  
Atom  Qatom  Qorb
               6s      5dxy    5dyz    5dz2    5dxz    5dx2-y2 6Ppy    6Ppz    
               6Ppx    
   1 11.000   1.003   1.907   1.919   1.892   1.919   1.907   0.152   0.149
              0.152
   2 11.000   1.003   1.907   1.919   1.892   1.919   1.907   0.152   0.149
              0.152
   3 11.000   1.003   1.907   1.919   1.892   1.919   1.907   0.152   0.149
              0.152
   4 11.000   1.003   1.907   1.919   1.892   1.919   1.907   0.152   0.149
              0.152
   5 11.000   1.003   1.907   1.919   1.892   1.919   1.907   0.152   0.149
              0.152
   6 11.000   1.003   1.907   1.919   1.892   1.919   1.907   0.152   0.149
              0.152
   7 11.000   1.003   1.907   1.919   1.892   1.919   1.907   0.152   0.149
              0.152
   8 11.000   1.003   1.907   1.919   1.892   1.919   1.907   0.152   0.149
              0.152
   9 11.000   1.003   1.907   1.919   1.892   1.919   1.907   0.152   0.149
              0.152

mulliken: Qtot =       99.000

* Maximum dynamic memory allocated =    59 MB

coxmol: Writing XMOL coordinates into file bulk_au_111.xyz                                                 

siesta: Program's energy decomposition (eV):
siesta: Ebs     =      -689.183013
siesta: Eions   =     10541.024256
siesta: Ena     =       524.239359
siesta: Ekin    =      5727.256148
siesta: Enl     =     -2652.404215
siesta: DEna    =        70.388118
siesta: DUscf   =         3.468387
siesta: DUext   =         0.000000
siesta: Exc     =     -1274.006698
siesta: eta*DQ  =         0.000000
siesta: Emadel  =         0.000000
siesta: Emeta   =         0.000000
siesta: Emolmec =         0.000000
siesta: Ekinion =         0.000000
siesta: Eharris =     -8142.086272
siesta: Etot    =     -8142.083157
siesta: FreeEng =     -8142.083157

siesta: Final energy (eV):
siesta:  Band Struct. =    -689.183013
siesta:       Kinetic =    5727.256148
siesta:       Hartree =     987.276795
siesta:    Ext. field =       0.000000
siesta:   Exch.-corr. =   -1274.006698
siesta:  Ion-electron =   -6723.702990
siesta:       Ion-ion =   -6858.906412
siesta:       Ekinion =       0.000000
siesta:         Total =   -8142.083157

siesta: Stress tensor (static) (eV/Ang**3):
siesta:     0.016367   -0.000000    0.000000
siesta:    -0.000000    0.016368   -0.000001
siesta:     0.000000   -0.000001    0.033059

siesta: Cell volume =        158.950899 Ang**3

siesta: Pressure (static):
siesta:                Solid            Molecule  Units
siesta:          -0.00023886         -0.00023930  Ry/Bohr**3
siesta:          -0.02193162         -0.02197190  eV/Ang**3
siesta:         -35.13870551        -35.20325034  kBar
(Free)E+ p_basis*V_orbitals  =       -8135.846844
(Free)Eharris+ p_basis*V_orbitals  =       -8135.850059

* Maximum dynamic memory allocated : Node    0 =    59 MB
* Maximum dynamic memory allocated : Node    1 =    58 MB
* Maximum dynamic memory allocated : Node    2 =    56 MB
* Maximum dynamic memory allocated : Node    3 =    55 MB

* Maximum memory occured during cdiag                         

timer: CPU execution times:
timer:  Routine       Calls   Time/call    Tot.time        %
timer:  siesta            1    1246.566    1246.566   100.00
timer:  Setup             1       1.792       1.792     0.14
timer:  bands             1       0.010       0.010     0.00
timer:  writewave         1       0.004       0.004     0.00
timer:  KSV_init          1       0.003       0.003     0.00
timer:  IterMD            1    1240.295    1240.295    99.50
timer:  hsparse           1       0.084       0.084     0.01
timer:  overlap           1       0.517       0.517     0.04
timer:  IterSCF          16      76.168    1218.695    97.76
timer:  kinefsm           2       0.275       0.550     0.04
timer:  nlefsm            2       6.977      13.954     1.12
timer:  DHSCF            18       6.942     124.953    10.02
timer:  DHSCF1            1       0.774       0.774     0.06
timer:  DHSCF2            1      10.969      10.969     0.88
timer:  REORD           112       0.001       0.070     0.01
timer:  POISON           19       0.069       1.316     0.11
timer:  DHSCF3           18       5.883     105.893     8.49
timer:  rhoofd           18       3.541      63.738     5.11
timer:  cellXC           18       0.090       1.616     0.13
timer:  vmat             17       1.915      32.554     2.61
timer:  MolMec            2       0.000       0.000     0.00
timer:  diagon           15      67.691    1015.360    81.45
timer:  cdiag         14400       0.024     340.812    27.34
timer:  cdiag1        14400       0.001      16.198     1.30
timer:  cdiag2        14400       0.004      58.503     4.69
timer:  cdiag3        14400       0.017     247.413    19.85
timer:  cdiag4        14400       0.001      16.927     1.36
timer:  TS                1      82.789      82.789     6.64
timer:  DHSCF4            1       7.295       7.295     0.59
timer:  dfscf             1       6.227       6.227     0.50
timer:  overfsm           1       0.059       0.059     0.00
timer:  optical           1       0.021       0.021     0.00
  

elaps: ELAPSED times:
elaps:  Routine       Calls   Time/call    Tot.time        %
elaps:  siesta            1     312.233     312.233   100.00
elaps:  Setup             1       0.450       0.450     0.14
elaps:  bands             1       0.000       0.000     0.00
elaps:  writewave         1       0.002       0.002     0.00
elaps:  KSV_init          1       0.000       0.000     0.00
elaps:  IterMD            1     310.650     310.650    99.49
elaps:  hsparse           1       0.022       0.022     0.01
elaps:  overlap           1       0.130       0.130     0.04
elaps:  IterSCF          16      19.077     305.237    97.76
elaps:  kinefsm           2       0.070       0.139     0.04
elaps:  nlefsm            2       1.783       3.566     1.14
elaps:  DHSCF            18       1.749      31.491    10.09
elaps:  DHSCF1            1       0.189       0.189     0.06
elaps:  DHSCF2            1       2.749       2.749     0.88
elaps:  REORD           112       0.000       0.021     0.01
elaps:  POISON           19       0.018       0.334     0.11
elaps:  DHSCF3           18       1.472      26.495     8.49
elaps:  rhoofd           18       0.974      17.534     5.62
elaps:  cellXC           18       0.021       0.385     0.12
elaps:  vmat             17       0.479       8.143     2.61
elaps:  MolMec            2       0.000       0.000     0.00
elaps:  diagon           15      16.929     253.931    81.33
elaps:  cdiag         14400       0.006      87.339    27.97
elaps:  cdiag1        14400       0.000       4.171     1.34
elaps:  cdiag2        14400       0.001      14.970     4.79
elaps:  cdiag3        14400       0.004      63.327    20.28
elaps:  cdiag4        14400       0.000       4.351     1.39
elaps:  TS                1      20.852      20.852     6.68
elaps:  DHSCF4            1       2.050       2.050     0.66
elaps:  dfscf             1       1.750       1.750     0.56
elaps:  overfsm           1       0.016       0.016     0.01
elaps:  optical           1       0.000       0.000     0.00
  
>> End of run:  24-MAR-2013  13:38:15
