Siesta Version: siesta-3.2
Architecture  : SIESTA_ARCH
Compiler flags: FFLAGS
PARALLEL version
TRANSIESTA support
NetCDF support

* Running on    4 nodes in parallel
>> Start of run:  24-MAR-2013  13:32:12

                           ***********************       
                           *  WELCOME TO SIESTA  *       
                           ***********************       

reinit: Reading from standard input
************************** Dump of input data file ****************************
SystemName  elec_au_111_abc
SystemLabel elec_au_111_abc
==================================================
==================================================
# SPECIES AND BASIS
# Number of species
NumberOfSpecies 1
%block ChemicalSpeciesLabel
  1  79 Au
%endblock ChemicalSpeciesLabel
PAO.BasisSize    SZP
PAO.EnergyShift  0.005 Ry
==================================================
==================================================
# K-points
%block kgrid_Monkhorst_Pack
8   0   0   0.0
0   8   0   0.0
0   0   60  0.0
%endblock kgrid_Monkhorst_Pack
==================================================
==================================================
# UNIT CELL AND ATOMIC POSITIONS
# UNIT CELL
LatticeConstant       2.92311 Ang
%block LatticeVectors
1.000000000   0.00000000000   0.0000000000
0.500000000   0.86602540378   0.0000000000
0.000000000   0.00000000000   2.4494897428
%endblock LatticeVectors
# Atomic coordinates
NumberOfAtoms 3
AtomicCoordinatesFormat ScaledCartesian
%block AtomicCoordinatesAndAtomicSpecies
       0.000000000       0.000000000       0.000000000    1
       0.500000000       0.288675135       0.816496581    1
       0.500000000      -0.288675135       1.632993162    1
%endblock AtomicCoordinatesAndAtomicSpecies
==================================================
==================================================
# General variables
ElectronicTemperature  100 K
MeshCutoff           350. Ry
xc.functional         LDA           # Exchange-correlation functional
xc.authors            CA
SpinPolarized .false.
SolutionMethod Diagon
==================================================
==================================================
# SCF variables
DM.MixSCF1   T
MaxSCFIterations      300           # Maximum number of SCF iter
DM.MixingWeight       0.03          # New DM amount for next SCF cycle
DM.Tolerance          1.d-4         # Tolerance in maximum difference
DM.UseSaveDM          true          # to use continuation files
DM.NumberPulay         5
Diag.DivideAndConquer  no
Diag.ParallelOverK    yes
==================================================
==================================================
# MD variables
MD.FinalTimeStep 1
MD.TypeOfRun CG
MD.NumCGsteps     000
MD.UseSaveXV      .true.
==================================================
==================================================
# Output variables
WriteMullikenPop                1
WriteBands                      .false.
SaveRho                         .false.
SaveDeltaRho                    .false.
SaveHS                          .false.
SaveElectrostaticPotential      True
SaveTotalPotential              no
WriteCoorXmol                   .true.
WriteMDXmol                     .true.
WriteMDhistory                  .false.
WriteEigenvalues                yes
==================================================
==================================================
************************** End of input data file *****************************

reinit: -----------------------------------------------------------------------
reinit: System Name: elec_au_111_abc
reinit: -----------------------------------------------------------------------
reinit: System Label: elec_au_111_abc                                             
reinit: -----------------------------------------------------------------------

initatom: Reading input for the pseudopotentials and atomic orbitals ----------
 Species number:            1  Label: Au Atomic number:          79
Ground state valence configuration:   6s01  5d10
Reading pseudopotential information in formatted form from Au.psf

Pseudopotential generated from a relativistic atomic calculation
There are spin-orbit pseudopotentials available
Spin-orbit interaction is not included in this calculation

Valence configuration for pseudopotential generation:
6s( 1.00) rc: 2.32
6p( 0.00) rc: 2.32
5d(10.00) rc: 2.32
5f( 0.00) rc: 2.32
For Au, standard SIESTA heuristics set lmxkb to 3
 (one more than the basis l, including polarization orbitals).
Use PS.lmax or PS.KBprojectors blocks to override.

<basis_specs>
===============================================================================
Au                   Z=  79    Mass=  196.97        Charge= 0.17977+309
Lmxo=2 Lmxkb= 3    BasisType=split      Semic=F
L=0  Nsemic=0  Cnfigmx=6
          n=1  nzeta=1  polorb=1
            splnorm:   0.15000    
               vcte:    0.0000    
               rinn:    0.0000    
                rcs:    0.0000    
            lambdas:    1.0000    
L=1  Nsemic=0  Cnfigmx=6
L=2  Nsemic=0  Cnfigmx=5
          n=1  nzeta=1  polorb=0
            splnorm:   0.15000    
               vcte:    0.0000    
               rinn:    0.0000    
                rcs:    0.0000    
            lambdas:    1.0000    
-------------------------------------------------------------------------------
L=0  Nkbl=1  erefs: 0.17977+309
L=1  Nkbl=1  erefs: 0.17977+309
L=2  Nkbl=1  erefs: 0.17977+309
L=3  Nkbl=1  erefs: 0.17977+309
===============================================================================
</basis_specs>

atom: Called for Au                    (Z =  79)

read_vps: Pseudopotential generation method:
read_vps: ATM3      Troullier-Martins                       
Total valence charge:   11.00000

xc_check: Exchange-correlation functional:
xc_check: Ceperley-Alder
V l=0 = -2*Zval/r beyond r=  3.7361
V l=1 = -2*Zval/r beyond r=  3.7361
V l=2 = -2*Zval/r beyond r=  3.7361
V l=3 = -2*Zval/r beyond r=  3.7361
All V_l potentials equal beyond r=  2.2946
This should be close to max(r_c) in ps generation
All pots = -2*Zval/r beyond r=  3.7361
Using large-core scheme for Vlocal

atom: Estimated core radius    3.73611

atom: Including non-local core corrections could be a good idea
atom: Maximum radius for 4*pi*r*r*local-pseudopot. charge    4.07775
atom: Maximum radius for r*vlocal+2*Zval:    3.78310
GHOST: No ghost state for L =  0
GHOST: No ghost state for L =  1
GHOST: No ghost state for L =  2
GHOST: No ghost state for L =  3

KBgen: Kleinman-Bylander projectors: 
   l= 0   rc=  2.382235   el= -0.445645   Ekb=  4.511922   kbcos=  0.274440
   l= 1   rc=  2.382235   el= -0.065316   Ekb=  2.560647   kbcos=  0.223707
   l= 2   rc=  2.382235   el= -0.526293   Ekb= -5.024070   kbcos= -0.676934
   l= 3   rc=  2.382235   el=  0.003438   Ekb= -2.070042   kbcos= -0.013117

KBgen: Total number of  Kleinman-Bylander projectors:   16
atom: -------------------------------------------------------------------------

atom: SANKEY-TYPE ORBITALS:

SPLIT: Orbitals with angular momentum L= 0

SPLIT: Basis orbitals for state 6s

SPLIT: PAO cut-off radius determined from an
SPLIT: energy shift=  0.005000 Ry

   izeta = 1
                 lambda =    1.000000
                     rc =    7.246712
                 energy =   -0.441368
                kinetic =    0.367640
    potential(screened) =   -0.809008
       potential(ionic) =   -8.408267

SPLIT: Orbitals with angular momentum L= 2

SPLIT: Basis orbitals for state 5d

SPLIT: PAO cut-off radius determined from an
SPLIT: energy shift=  0.005000 Ry

   izeta = 1
                 lambda =    1.000000
                     rc =    5.106662
                 energy =   -0.521343
                kinetic =    4.852314
    potential(screened) =   -5.373657
       potential(ionic) =  -16.114240

POLgen: Perturbative polarization orbital with L=  1

POLgen: Polarization orbital for state 6s

   izeta = 1
                     rc =    7.246712
                 energy =   -0.107868
                kinetic =    0.647525
    potential(screened) =   -0.755394
       potential(ionic) =   -7.869443
atom: Total number of Sankey-type orbitals:  9

atm_pop: Valence configuration (for local Pseudopot. screening):
 6s( 1.00)                                                            
 6p( 0.00)                                                            
 5d(10.00)                                                            
Vna: chval, zval:   11.00000  11.00000

Vna:  Cut-off radius for the neutral-atom potential:   7.246712

atom: _________________________________________________________________________

prinput: Basis input ----------------------------------------------------------

PAO.BasisType split     

%block ChemicalSpeciesLabel
    1   79 Au                      # Species index, atomic number, species label
%endblock ChemicalSpeciesLabel

%block PAO.Basis                 # Define Basis set
Au                    2                    # Species label, number of l-shells
 n=6   0   1 P   1                   # n, l, Nzeta, Polarization, NzetaPol
   7.247   
   1.000   
 n=5   2   1                         # n, l, Nzeta 
   5.107   
   1.000   
%endblock PAO.Basis

prinput: ----------------------------------------------------------------------

Dumping basis to NetCDF file Au.ion.nc
coor:   Atomic-coordinates input format  =     Cartesian coordinates
coor:                                          (in units of alat)

siesta: WARNING: XV file not found

siesta: Atomic coordinates (Bohr) and species
siesta:      0.00000   0.00000   0.00000  1        1
siesta:      2.76194   1.59461   4.51023  1        2
siesta:      2.76194  -1.59461   9.02046  1        3

siesta: System type = bulk      

initatomlists: Number of atoms, orbitals, and projectors:      3    27    48

siesta: ******************** Simulation parameters ****************************
siesta:
siesta: The following are some of the parameters of the simulation.
siesta: A complete list of the parameters used, including default values,
siesta: can be found in file out.fdf
siesta:
redata: Non-Collinear-spin run           =     F
redata: SpinPolarized (Up/Down) run      =     F
redata: Number of spin components        =     1
redata: Long output                      =     F
redata: Number of Atomic Species         =        1
redata: Charge density info will appear in .RHO file
redata: Write Mulliken Pop.              =     Atomic and Orbital charges
redata: Mesh Cutoff                      =   350.0000  Ry
redata: Net charge of the system         =     0.0000 |e|
redata: Max. number of SCF Iter          =      300
redata: Performing Pulay mixing using    =     5 iterations
redata: Mix DM in first SCF step ?       =     T
redata: Write Pulay info on disk?        =     F
redata: Discard 1st Pulay DM after  kick =     F
redata: New DM Mixing Weight             =     0.0300
redata: New DM Occupancy tolerance       = 0.000000000001
redata: No kicks to SCF
redata: DM Mixing Weight for Kicks       =     0.5000
redata: DM Tolerance for SCF             =     0.000100
redata: Require Energy convergence for SCF =     F
redata: DM Energy tolerance for SCF      =     0.000100 eV
redata: Require Harris convergence for SCF =     F
redata: DM Harris energy tolerance for SCF =     0.000100 eV
redata: Using Saved Data (generic)   =     F
redata: Use continuation files for DM    =     T
redata: Neglect nonoverlap interactions  =     F
redata: Method of Calculation            =     Diagonalization
redata: Divide and Conquer               =     F
redata: Electronic Temperature           =     0.0006  Ry
redata: Fix the spin of the system       =     F
redata: Dynamics option                  =     CG coord. optimization
redata: Variable cell                    =     F
redata: Use continuation files for CG    =     F
redata: Max atomic displ per move        =     0.2000  Bohr
redata: Maximum number of CG moves       =        0
redata: Force tolerance                  =     0.0016  Ry/Bohr
redata: ***********************************************************************

ts_read_options: **************************************************************
ts_read_options: Save H and S matrices        =    T
ts_read_options: Mixing Hamiltonian           =    F
ts_read_options: TranSIESTA Voltage           =    0.0000 Volts
ts_read_options: TriDiag                      =    F
ts_read_options: Update DM Contact Reg. only  =    T
ts_read_options: N. Buffer At. Left           =    0
ts_read_options: N. Buffer At. Right          =    0
ts_read_options: N. Pts. Circle               =   24
ts_read_options: N. Pts. Line                 =    6
ts_read_options: N. Poles in Contour          =    6
ts_read_options: N. Pts. Bias Contour         =    5
ts_read_options: Contour E Min.               =   -3.0000 Ry
ts_read_options: GFEta                        =    0.000001 Ry
ts_read_options: Electronic Temperature       =    0.0006 Ry
ts_read_options: Bias Contour Method         =    gaussfermi          
ts_read_options: Left GF File                =    Left.GF                          
ts_read_options: Right GF File               =    Right.GF                         
ts_read_options: Calculate GF                 =    T
ts_read_options: Save S and quit (onlyS)      =    F
ts_read_options: **************************************************************

************************ Begin: TS CHECKS AND WARNINGS ************************
************************ End: TS CHECKS AND WARNINGS **************************

Total number of electrons:    33.000000
Total ionic charge:    33.000000

* ProcessorY, Blocksize:    2   7

k-point displ. along   1 input, could be:     0.00    0.50
k-point displ. along   2 input, could be:     0.00    0.50
k-point displ. along   3 input, could be:     0.00    0.50
 Kpoints in:         1984 . Kpoints trimmed:         1960

siesta: k-grid: Number of k-points =  1960
siesta: k-grid: Cutoff (effective) =    11.692 Ang
siesta: k-grid: Supercell and displacements
siesta: k-grid:    8   0   0      0.000
siesta: k-grid:    0   8   0      0.000
siesta: k-grid:    0   0  60      0.000
k-point displ. along   1 input, could be:     0.00    0.50
k-point displ. along   2 input, could be:     0.00    0.50
 Kpoints in:           40 . Kpoints trimmed:           37

transiesta: ts_k-grid: Number of Transport k-points =    37
transiesta: ts_k-grid: Supercell and displacements
transiesta: ts_k-grid:    8   0   0      0.000
transiesta: ts_k-grid:    0   8   0      0.000

Naive supercell factors:     7    7    3

superc: Internal auxiliary supercell:     7 x     7 x     3  =     147
superc: Number of atoms, orbitals, and projectors:    441   3969   7056

* Maximum dynamic memory allocated =     2 MB

siesta:                 ==============================
                            Begin CG move =      0
                        ==============================

superc: Internal auxiliary supercell:     7 x     7 x     3  =     147
superc: Number of atoms, orbitals, and projectors:    441   3969   7056

outcell: Unit cell vectors (Ang):
        2.923110    0.000000    0.000000
        1.461555    2.531488    0.000000
        0.000000    0.000000    7.160128

outcell: Cell vector modules (Ang)   :    2.923110    2.923110    7.160128
outcell: Cell angles (23,13,12) (deg):     90.0000     90.0000     60.0000
outcell: Cell volume (Ang**3)        :     52.9836
New_DM. Step:     1
Initializing Density Matrix...

InitMesh: MESH =    30 x    30 x    90 =       81000
InitMesh: Mesh cutoff (required, used) =   350.000   388.144 Ry

* Maximum dynamic memory allocated =    33 MB

stepf: Fermi-Dirac step function

siesta: Program's energy decomposition (eV):
siesta: Ebs     =      -215.406898
siesta: Eions   =      3513.674752
siesta: Ena     =       174.746453
siesta: Ekin    =      1995.610445
siesta: Enl     =      -937.365313
siesta: DEna    =         0.000001
siesta: DUscf   =         0.000000
siesta: DUext   =         0.000000
siesta: Exc     =      -433.822191
siesta: eta*DQ  =         0.000000
siesta: Emadel  =         0.000000
siesta: Emeta   =         0.000000
siesta: Emolmec =         0.000000
siesta: Ekinion =         0.000000
siesta: Eharris =     -2715.297666
siesta: Etot    =     -2714.505357
siesta: FreeEng =     -2714.505357

siesta: iscf   Eharris(eV)      E_KS(eV)   FreeEng(eV)   dDmax  Ef(eV)
siesta:    1    -2715.2977    -2714.5054    -2714.5054  0.2202 -2.4747
timer: Routine,Calls,Time,% = IterSCF        1      35.009  93.75
elaps: Routine,Calls,Wall,% = IterSCF        1       8.760  93.72
siesta:    2    -2715.1917    -2714.5292    -2714.5297  0.2166 -2.5188
siesta:    3    -2714.0656    -2713.9624    -2713.9628  0.1093 -3.5477
siesta:    4    -2714.0551    -2713.9783    -2713.9786  0.0978 -3.5264
siesta:    5    -2714.0317    -2713.9724    -2713.9727  0.0014 -3.4191
siesta:    6    -2714.0316    -2713.9752    -2713.9755  0.0014 -3.4190
siesta:    7    -2714.0317    -2714.0318    -2714.0322  0.0002 -3.4177
siesta:    8    -2714.0317    -2714.0305    -2714.0308  0.0001 -3.4178
siesta:    9    -2714.0317    -2714.0307    -2714.0310  0.0001 -3.4178

siesta: E_KS(eV) =            -2714.0307

siesta: E_KS - E_eggbox =     -2714.0307

siesta: Atomic forces (eV/Ang):
----------------------------------------
   Tot    0.000003    0.000022    0.000004
----------------------------------------
   Max    0.000011
   Res    0.000007    sqrt( Sum f_i^2 / 3N )
----------------------------------------
   Max    0.000011    constrained

Stress-tensor-Voigt (kbar):       26.40       26.40       52.87       -0.00       -0.00        0.00
(Free)E + p*V (eV/cell)    -2715.1959
Target enthalpy (eV/cell)    -2714.0311

mulliken: Mulliken Atomic and Orbital Populations:

Species: Au                  
Atom  Qatom  Qorb
               6s      5dxy    5dyz    5dz2    5dxz    5dx2-y2 6Ppy    6Ppz    
               6Ppx    
   1 11.000   1.003   1.907   1.919   1.892   1.919   1.907   0.152   0.149
              0.152
   2 11.000   1.003   1.907   1.919   1.892   1.919   1.907   0.152   0.149
              0.152
   3 11.000   1.003   1.907   1.919   1.892   1.919   1.907   0.152   0.149
              0.152

mulliken: Qtot =       33.000

* Maximum dynamic memory allocated =    34 MB

coxmol: Writing XMOL coordinates into file elec_au_111_abc.xyz                                             

siesta: Eigenvalues (eV):
  ik is    eps
   1  1 -10.34 -10.10  -9.80  -9.64  -8.47  -8.07  -8.03  -7.56  -7.52  -7.34
         -5.94  -5.84  -5.78  -5.63  -5.42  -5.29  -3.27  -2.19   1.76   5.79
          6.02   9.15  10.36  10.73  16.92  16.99  19.13
   2  1 -10.44  -9.64  -9.40  -9.25  -8.60  -8.50  -8.40  -7.87  -7.49  -7.38
         -6.82  -6.78  -5.98  -5.92  -5.71  -5.30  -3.27  -2.87   4.65   7.01
          8.72   9.12   9.62  11.69  14.33  15.24  21.53
   3  1 -10.44  -9.64  -9.40  -9.25  -8.60  -8.50  -8.40  -7.87  -7.49  -7.38
         -6.82  -6.78  -5.98  -5.92  -5.71  -5.30  -3.27  -2.87   4.65   7.01
          8.72   9.12   9.62  11.69  14.33  15.24  21.53
   4  1 -10.34 -10.10  -9.80  -9.64  -8.47  -8.07  -8.03  -7.56  -7.52  -7.34
         -5.94  -5.84  -5.78  -5.63  -5.42  -5.29  -3.27  -2.19   1.76   5.79
          6.02   9.15  10.36  10.73  16.92  16.99  19.13
   5  1 -10.04  -9.82  -9.73  -9.58  -8.64  -8.35  -7.87  -7.56  -7.33  -7.23
         -6.18  -5.91  -5.77  -5.54  -5.21  -3.64  -1.34  -0.39  -0.36   3.48
          3.73   7.55   9.95  11.80  12.64  14.35  17.82
   6  1  -9.71  -9.34  -9.34  -9.09  -8.55  -8.55  -7.93  -7.93  -7.15  -6.93
         -6.93  -6.29  -5.88  -5.88  -5.54  -1.50  -1.50   0.91   1.81   2.88
          2.88   5.02   7.36   7.36  12.27  15.21  15.21
   7  1  -9.71  -9.34  -9.34  -9.09  -8.55  -8.55  -7.93  -7.93  -7.15  -6.93
         -6.93  -6.29  -5.88  -5.88  -5.54  -1.50  -1.50   0.91   1.81   2.88
          2.88   5.02   7.36   7.36  12.27  15.21  15.21
   8  1 -10.04  -9.82  -9.73  -9.58  -8.64  -8.35  -7.87  -7.56  -7.33  -7.23
         -6.18  -5.91  -5.77  -5.54  -5.21  -3.64  -1.34  -0.39  -0.36   3.48
          3.73   7.55   9.95  11.80  12.64  14.35  17.82
   9  1 -10.44  -9.64  -9.40  -9.25  -8.60  -8.50  -8.40  -7.87  -7.49  -7.38
         -6.82  -6.78  -5.98  -5.92  -5.71  -5.30  -3.27  -2.87   4.65   7.01
          8.72   9.12   9.62  11.69  14.33  15.24  21.53
  10  1 -11.34  -9.85  -9.40  -9.15  -8.52  -8.40  -8.16  -7.70  -7.61  -7.60
         -7.15  -6.73  -6.69  -6.58  -6.24  -5.43  -4.45  -3.75   6.82   7.32
          8.26  12.92  13.24  13.55  19.05  19.48  22.03
  11  1 -11.66  -9.66  -9.66  -8.68  -8.68  -8.40  -8.27  -8.27  -7.69  -7.61
         -6.95  -6.93  -6.93  -6.24  -6.16  -6.16  -4.27  -4.27   6.87   6.87
         11.43  11.43  16.53  17.61  17.61  17.62  23.32
  12  1 -11.34  -9.85  -9.40  -9.15  -8.52  -8.40  -8.16  -7.70  -7.61  -7.60
         -7.15  -6.73  -6.69  -6.58  -6.24  -5.43  -4.45  -3.75   6.82   7.32
          8.26  12.92  13.24  13.55  19.05  19.48  22.03
  13  1 -10.44  -9.64  -9.40  -9.25  -8.60  -8.50  -8.40  -7.87  -7.49  -7.38
         -6.82  -6.78  -5.98  -5.92  -5.71  -5.30  -3.27  -2.87   4.65   7.01
          8.72   9.12   9.62  11.69  14.33  15.24  21.53
  14  1  -9.55  -9.55  -9.41  -8.95  -8.95  -8.51  -8.16  -7.68  -7.68  -7.14
         -6.59  -6.54  -6.54  -5.41  -5.41  -3.74  -0.91  -0.91   2.43   2.43
          7.32   8.25   8.25   8.26  11.75  11.75  19.04
  15  1  -9.71  -9.34  -9.34  -9.09  -8.55  -8.55  -7.93  -7.93  -7.15  -6.93
         -6.93  -6.29  -5.88  -5.88  -5.54  -1.50  -1.50   0.91   1.81   2.88
          2.88   5.02   7.36   7.36  12.27  15.21  15.21
  16  1  -9.55  -9.55  -9.41  -8.95  -8.95  -8.51  -8.16  -7.68  -7.68  -7.14
         -6.59  -6.54  -6.54  -5.41  -5.41  -3.74  -0.91  -0.91   2.43   2.43
          7.32   8.25   8.25   8.26  11.75  11.75  19.04
  17  1 -10.44  -9.64  -9.40  -9.25  -8.60  -8.50  -8.40  -7.87  -7.49  -7.38
         -6.82  -6.78  -5.98  -5.92  -5.71  -5.30  -3.27  -2.87   4.65   7.01
          8.72   9.12   9.62  11.69  14.33  15.24  21.53
  18  1 -11.66  -9.66  -9.66  -8.68  -8.68  -8.40  -8.27  -8.27  -7.69  -7.61
         -6.95  -6.93  -6.93  -6.24  -6.16  -6.16  -4.27  -4.27   6.87   6.87
         11.43  11.43  16.53  17.61  17.61  17.62  23.32
  19  1 -12.44 -10.34 -10.30  -8.18  -8.10  -8.07  -8.02  -7.87  -7.86  -7.75
         -7.62  -7.55  -6.72  -6.54  -6.41  -5.64  -5.43  -4.93   6.01   6.11
         15.16  16.99  19.13  20.26  20.79  22.25  23.25
  20  1 -12.44 -10.34 -10.30  -8.18  -8.10  -8.07  -8.02  -7.87  -7.86  -7.75
         -7.62  -7.55  -6.72  -6.54  -6.41  -5.64  -5.43  -4.93   6.01   6.11
         15.16  16.99  19.13  20.26  20.79  22.25  23.25
  21  1 -11.66  -9.66  -9.66  -8.68  -8.68  -8.40  -8.27  -8.27  -7.69  -7.61
         -6.95  -6.93  -6.93  -6.24  -6.16  -6.16  -4.27  -4.27   6.87   6.87
         11.43  11.43  16.53  17.61  17.61  17.62  23.32
  22  1 -10.44  -9.64  -9.40  -9.25  -8.60  -8.50  -8.40  -7.87  -7.49  -7.38
         -6.82  -6.78  -5.98  -5.92  -5.71  -5.30  -3.27  -2.87   4.65   7.01
          8.72   9.12   9.62  11.69  14.33  15.24  21.53
  23  1 -10.04  -9.82  -9.73  -9.58  -8.64  -8.35  -7.87  -7.56  -7.33  -7.23
         -6.18  -5.91  -5.77  -5.54  -5.21  -3.64  -1.34  -0.39  -0.36   3.48
          3.73   7.55   9.95  11.80  12.64  14.35  17.82
  24  1 -10.04  -9.82  -9.73  -9.58  -8.64  -8.35  -7.87  -7.56  -7.33  -7.23
         -6.18  -5.91  -5.77  -5.54  -5.21  -3.64  -1.34  -0.39  -0.36   3.48
          3.73   7.55   9.95  11.80  12.64  14.35  17.82
  25  1 -10.34 -10.10  -9.80  -9.64  -8.47  -8.07  -8.03  -7.56  -7.52  -7.34
         -5.94  -5.84  -5.78  -5.63  -5.42  -5.29  -3.27  -2.19   1.76   5.79
          6.02   9.15  10.36  10.73  16.92  16.99  19.13
  26  1 -11.34  -9.85  -9.40  -9.15  -8.52  -8.40  -8.16  -7.70  -7.61  -7.60
         -7.15  -6.73  -6.69  -6.58  -6.24  -5.43  -4.45  -3.75   6.82   7.32
          8.26  12.92  13.24  13.55  19.05  19.48  22.03
  27  1 -12.44 -10.34 -10.30  -8.18  -8.10  -8.07  -8.02  -7.87  -7.86  -7.75
         -7.62  -7.55  -6.72  -6.54  -6.41  -5.64  -5.43  -4.93   6.01   6.11
         15.16  16.99  19.13  20.26  20.79  22.25  23.25
  28  1 -12.86 -10.72 -10.72  -8.03  -8.02  -8.02  -7.87  -7.87  -7.87  -7.87
         -7.18  -7.18  -6.57  -6.57  -5.99  -5.99  -5.99  -5.99   5.65   5.65
         20.14  20.14  20.14  20.14  23.52  23.53  23.53
  29  1 -10.29 -10.00  -9.99  -9.99  -8.39  -8.39  -7.52  -7.52  -7.35  -7.35
         -5.46  -5.37  -5.37  -5.11  -5.10  -2.64  -2.64  -1.83   1.00   1.00
          2.69   9.24   9.25  14.84  14.84  16.01  16.01
  30  1 -10.04  -9.82  -9.73  -9.58  -8.64  -8.35  -7.87  -7.56  -7.33  -7.23
         -6.18  -5.91  -5.77  -5.54  -5.21  -3.64  -1.34  -0.39  -0.36   3.48
          3.73   7.55   9.95  11.80  12.64  14.35  17.82
  31  1  -9.55  -9.55  -9.41  -8.95  -8.95  -8.51  -8.16  -7.68  -7.68  -7.14
         -6.59  -6.54  -6.54  -5.41  -5.41  -3.74  -0.91  -0.91   2.43   2.43
          7.32   8.25   8.25   8.26  11.75  11.75  19.04
  32  1 -10.04  -9.82  -9.73  -9.58  -8.64  -8.35  -7.87  -7.56  -7.33  -7.23
         -6.18  -5.91  -5.77  -5.54  -5.21  -3.64  -1.34  -0.39  -0.36   3.48
          3.73   7.55   9.95  11.80  12.64  14.35  17.82
  33  1 -10.04  -9.82  -9.73  -9.58  -8.64  -8.35  -7.87  -7.56  -7.33  -7.23
         -6.18  -5.91  -5.77  -5.54  -5.21  -3.64  -1.34  -0.39  -0.36   3.48
          3.73   7.55   9.95  11.80  12.64  14.35  17.82
  34  1  -9.55  -9.55  -9.41  -8.95  -8.95  -8.51  -8.16  -7.68  -7.68  -7.14
         -6.59  -6.54  -6.54  -5.41  -5.41  -3.74  -0.91  -0.91   2.43   2.43
          7.32   8.25   8.25   8.26  11.75  11.75  19.04
  35  1 -10.04  -9.82  -9.73  -9.58  -8.64  -8.35  -7.87  -7.56  -7.33  -7.23
         -6.18  -5.91  -5.77  -5.54  -5.21  -3.64  -1.34  -0.39  -0.36   3.48
          3.73   7.55   9.95  11.80  12.64  14.35  17.82
  36  1 -10.29 -10.00  -9.99  -9.99  -8.39  -8.39  -7.52  -7.52  -7.35  -7.35
         -5.46  -5.37  -5.37  -5.11  -5.10  -2.64  -2.64  -1.83   1.00   1.00
          2.69   9.24   9.25  14.84  14.84  16.01  16.01
  37  1 -10.04  -9.82  -9.73  -9.58  -8.64  -8.35  -7.87  -7.56  -7.33  -7.23
         -6.18  -5.91  -5.77  -5.54  -5.21  -3.64  -1.34  -0.39  -0.36   3.48
          3.73   7.55   9.95  11.80  12.64  14.35  17.82
  38  1  -9.55  -9.55  -9.41  -8.95  -8.95  -8.51  -8.16  -7.68  -7.68  -7.14
         -6.59  -6.54  -6.54  -5.41  -5.41  -3.74  -0.91  -0.91   2.43   2.43
          7.32   8.25   8.25   8.26  11.75  11.75  19.04
  39  1 -10.04  -9.82  -9.73  -9.58  -8.64  -8.35  -7.87  -7.56  -7.33  -7.23
         -6.18  -5.91  -5.77  -5.54  -5.21  -3.64  -1.34  -0.39  -0.36   3.48
          3.73   7.55   9.95  11.80  12.64  14.35  17.82
  40  1 -10.29 -10.00  -9.99  -9.99  -8.39  -8.39  -7.52  -7.52  -7.35  -7.35
         -5.46  -5.37  -5.37  -5.11  -5.10  -2.64  -2.64  -1.83   1.00   1.00
          2.69   9.24   9.25  14.84  14.84  16.01  16.01
  41  1 -10.32 -10.10  -9.79  -9.68  -8.46  -8.13  -8.04  -7.53  -7.48  -7.37
         -5.97  -5.84  -5.79  -5.63  -5.41  -5.28  -3.11  -2.29   1.76   5.59
          6.15   8.99  10.36  11.02  16.83  17.08  18.99
  42  1 -10.43  -9.63  -9.40  -9.30  -8.58  -8.53  -8.39  -7.88  -7.51  -7.35
         -6.84  -6.78  -5.99  -5.92  -5.69  -5.30  -3.15  -2.97   4.65   6.85
          8.58   9.41   9.77  11.55  14.18  15.41  21.48
  43  1 -10.45  -9.66  -9.41  -9.21  -8.62  -8.47  -8.41  -7.86  -7.48  -7.41
         -6.79  -6.77  -5.98  -5.92  -5.73  -5.30  -3.39  -2.78   4.66   7.16
          8.83   8.87   9.48  11.82  14.48  15.07  21.58
  44  1 -10.37 -10.11  -9.80  -9.61  -8.49  -8.04  -7.99  -7.59  -7.55  -7.30
         -5.91  -5.84  -5.77  -5.64  -5.44  -5.30  -3.42  -2.09   1.77   5.89
          5.99   9.31  10.37  10.44  16.76  17.15  19.25
  45  1 -10.04  -9.85  -9.73  -9.55  -8.66  -8.34  -7.81  -7.60  -7.36  -7.19
         -6.16  -5.91  -5.78  -5.55  -5.22  -3.65  -1.45  -0.39  -0.24   3.59
          3.60   7.58  10.04  11.57  12.81  14.16  17.97
  46  1  -9.71  -9.36  -9.32  -9.09  -8.56  -8.55  -7.96  -7.90  -7.15  -6.95
         -6.91  -6.29  -5.88  -5.88  -5.54  -1.50  -1.50   0.91   1.81   2.74
          3.02   5.03   7.20   7.53  12.26  15.10  15.31
  47  1  -9.71  -9.36  -9.32  -9.09  -8.56  -8.55  -7.96  -7.90  -7.15  -6.95
         -6.91  -6.29  -5.88  -5.88  -5.54  -1.50  -1.50   0.91   1.81   2.74
          3.02   5.03   7.20   7.53  12.26  15.10  15.31
  48  1 -10.03  -9.79  -9.73  -9.62  -8.62  -8.36  -7.94  -7.52  -7.29  -7.26
         -6.19  -5.90  -5.77  -5.54  -5.21  -3.63  -1.23  -0.50  -0.37   3.37
          3.86   7.52   9.85  12.03  12.47  14.54  17.66
  49  1 -10.43  -9.63  -9.40  -9.30  -8.58  -8.53  -8.39  -7.88  -7.51  -7.35
         -6.84  -6.78  -5.99  -5.92  -5.69  -5.30  -3.15  -2.97   4.65   6.85
          8.58   9.41   9.77  11.55  14.18  15.41  21.48
  50  1 -11.33  -9.84  -9.43  -9.13  -8.53  -8.43  -8.15  -7.69  -7.61  -7.60
         -7.15  -6.74  -6.70  -6.60  -6.23  -5.41  -4.32  -3.83   6.52   7.44
          8.45  13.07  13.23  13.38  19.20  19.34  21.99
  51  1 -11.66  -9.67  -9.64  -8.71  -8.64  -8.40  -8.29  -8.25  -7.69  -7.61
         -6.95  -6.94  -6.92  -6.24  -6.20  -6.12  -4.35  -4.18   6.57   7.17
         11.41  11.45  16.51  17.45  17.63  17.76  23.32
  52  1 -11.34  -9.86  -9.37  -9.17  -8.51  -8.38  -8.17  -7.70  -7.63  -7.59
         -7.14  -6.72  -6.68  -6.55  -6.25  -5.45  -4.57  -3.67   7.12   7.16
          8.11  12.78  13.25  13.71  18.90  19.62  22.05
  53  1 -10.45  -9.66  -9.41  -9.21  -8.62  -8.47  -8.41  -7.86  -7.48  -7.41
         -6.79  -6.77  -5.98  -5.92  -5.73  -5.30  -3.39  -2.78   4.66   7.16
          8.83   8.87   9.48  11.82  14.48  15.07  21.58
  54  1  -9.57  -9.53  -9.41  -8.95  -8.94  -8.51  -8.16  -7.69  -7.67  -7.14
         -6.58  -6.56  -6.52  -5.41  -5.41  -3.74  -1.01  -0.80   2.43   2.44
          7.30   8.06   8.28   8.43  11.58  11.92  19.04
  55  1  -9.71  -9.36  -9.32  -9.09  -8.56  -8.55  -7.96  -7.90  -7.15  -6.95
         -6.91  -6.29  -5.88  -5.88  -5.54  -1.50  -1.50   0.91   1.81   2.74
          3.02   5.03   7.20   7.53  12.26  15.10  15.31
  56  1  -9.57  -9.53  -9.41  -8.95  -8.94  -8.51  -8.16  -7.69  -7.67  -7.14
         -6.58  -6.56  -6.52  -5.41  -5.41  -3.74  -1.01  -0.80   2.43   2.44
          7.30   8.06   8.28   8.43  11.58  11.92  19.04
  57  1 -10.45  -9.66  -9.41  -9.21  -8.62  -8.47  -8.41  -7.86  -7.48  -7.41
         -6.79  -6.77  -5.98  -5.92  -5.73  -5.30  -3.39  -2.78   4.66   7.16
          8.83   8.87   9.48  11.82  14.48  15.07  21.58
  58  1 -11.66  -9.67  -9.64  -8.71  -8.64  -8.40  -8.29  -8.25  -7.69  -7.61
         -6.95  -6.94  -6.92  -6.24  -6.20  -6.12  -4.35  -4.18   6.57   7.17
         11.41  11.45  16.51  17.45  17.63  17.76  23.32
  59  1 -12.44 -10.32 -10.32  -8.18  -8.11  -8.06  -7.99  -7.87  -7.85  -7.78
         -7.61  -7.56  -6.73  -6.53  -6.45  -5.62  -5.35  -4.99   5.70   6.43
         15.19  16.96  19.01  20.35  20.91  22.16  23.24
  60  1 -12.44 -10.36 -10.28  -8.17  -8.12  -8.09  -8.01  -7.88  -7.86  -7.71
         -7.63  -7.54  -6.70  -6.55  -6.37  -5.67  -5.51  -4.87   5.81   6.32
         15.13  17.02  19.26  20.16  20.67  22.34  23.24
  61  1 -11.66  -9.67  -9.64  -8.71  -8.64  -8.40  -8.29  -8.25  -7.69  -7.61
         -6.95  -6.94  -6.92  -6.24  -6.20  -6.12  -4.35  -4.18   6.57   7.17
         11.41  11.45  16.51  17.45  17.63  17.76  23.32
  62  1 -10.43  -9.63  -9.40  -9.30  -8.58  -8.53  -8.39  -7.88  -7.51  -7.35
         -6.84  -6.78  -5.99  -5.92  -5.69  -5.30  -3.15  -2.97   4.65   6.85
          8.58   9.41   9.77  11.55  14.18  15.41  21.48
  63  1 -10.03  -9.79  -9.73  -9.62  -8.62  -8.36  -7.94  -7.52  -7.29  -7.26
         -6.19  -5.90  -5.77  -5.54  -5.21  -3.63  -1.23  -0.50  -0.37   3.37
          3.86   7.52   9.85  12.03  12.47  14.54  17.66
  64  1 -10.04  -9.85  -9.73  -9.55  -8.66  -8.34  -7.81  -7.60  -7.36  -7.19
         -6.16  -5.91  -5.78  -5.55  -5.22  -3.65  -1.45  -0.39  -0.24   3.59
          3.60   7.58  10.04  11.57  12.81  14.16  17.97
  65  1 -10.37 -10.11  -9.80  -9.61  -8.49  -8.04  -7.99  -7.59  -7.55  -7.30
         -5.91  -5.84  -5.77  -5.64  -5.44  -5.30  -3.42  -2.09   1.77   5.89
          5.99   9.31  10.37  10.44  16.76  17.15  19.25
  66  1 -11.34  -9.86  -9.37  -9.17  -8.51  -8.38  -8.17  -7.70  -7.63  -7.59
         -7.14  -6.72  -6.68  -6.55  -6.25  -5.45  -4.57  -3.67   7.12   7.16
          8.11  12.78  13.25  13.71  18.90  19.62  22.05
  67  1 -12.44 -10.36 -10.28  -8.17  -8.12  -8.09  -8.01  -7.88  -7.86  -7.71
         -7.63  -7.54  -6.70  -6.55  -6.37  -5.67  -5.51  -4.87   5.81   6.32
         15.13  17.02  19.26  20.16  20.67  22.34  23.24
  68  1 -12.86 -10.75 -10.71  -8.03  -8.02  -8.02  -7.88  -7.88  -7.86  -7.86
         -7.27  -7.09  -6.57  -6.57  -6.02  -6.02  -5.96  -5.96   5.34   5.96
         20.08  20.08  20.21  20.21  23.52  23.53  23.53
  69  1 -12.44 -10.32 -10.32  -8.18  -8.11  -8.06  -7.99  -7.87  -7.85  -7.78
         -7.61  -7.56  -6.73  -6.53  -6.45  -5.62  -5.35  -4.99   5.70   6.43
         15.19  16.96  19.01  20.35  20.91  22.16  23.24
  70  1 -11.33  -9.84  -9.43  -9.13  -8.53  -8.43  -8.15  -7.69  -7.61  -7.60
         -7.15  -6.74  -6.70  -6.60  -6.23  -5.41  -4.32  -3.83   6.52   7.44
          8.45  13.07  13.23  13.38  19.20  19.34  21.99
  71  1 -10.32 -10.10  -9.79  -9.68  -8.46  -8.13  -8.04  -7.53  -7.48  -7.37
         -5.97  -5.84  -5.79  -5.63  -5.41  -5.28  -3.11  -2.29   1.76   5.59
          6.15   8.99  10.36  11.02  16.83  17.08  18.99
  72  1 -10.29 -10.02 -10.00  -9.96  -8.41  -8.37  -7.55  -7.48  -7.41  -7.29
         -5.46  -5.37  -5.36  -5.11  -5.10  -2.67  -2.61  -1.84   0.90   1.11
          2.69   9.24   9.25  14.61  15.08  15.84  16.17
  73  1 -10.04  -9.85  -9.73  -9.55  -8.66  -8.34  -7.81  -7.60  -7.36  -7.19
         -6.16  -5.91  -5.78  -5.55  -5.22  -3.65  -1.45  -0.39  -0.24   3.59
          3.60   7.58  10.04  11.57  12.81  14.16  17.97
  74  1 -10.45  -9.66  -9.41  -9.21  -8.62  -8.47  -8.41  -7.86  -7.48  -7.41
         -6.79  -6.77  -5.98  -5.92  -5.73  -5.30  -3.39  -2.78   4.66   7.16
          8.83   8.87   9.48  11.82  14.48  15.07  21.58
  75  1 -11.66  -9.67  -9.64  -8.71  -8.64  -8.40  -8.29  -8.25  -7.69  -7.61
         -6.95  -6.94  -6.92  -6.24  -6.20  -6.12  -4.35  -4.18   6.57   7.17
         11.41  11.45  16.51  17.45  17.63  17.76  23.32
  76  1 -12.44 -10.32 -10.32  -8.18  -8.11  -8.06  -7.99  -7.87  -7.85  -7.78
         -7.61  -7.56  -6.73  -6.53  -6.45  -5.62  -5.35  -4.99   5.70   6.43
         15.19  16.96  19.01  20.35  20.91  22.16  23.24
  77  1 -12.44 -10.36 -10.28  -8.17  -8.12  -8.09  -8.01  -7.88  -7.86  -7.71
         -7.63  -7.54  -6.70  -6.55  -6.37  -5.67  -5.51  -4.87   5.81   6.32
         15.13  17.02  19.26  20.16  20.67  22.34  23.24
  78  1 -11.66  -9.67  -9.64  -8.71  -8.64  -8.40  -8.29  -8.25  -7.69  -7.61
         -6.95  -6.94  -6.92  -6.24  -6.20  -6.12  -4.35  -4.18   6.57   7.17
         11.41  11.45  16.51  17.45  17.63  17.76  23.32
  79  1 -10.43  -9.63  -9.40  -9.30  -8.58  -8.53  -8.39  -7.88  -7.51  -7.35
         -6.84  -6.78  -5.99  -5.92  -5.69  -5.30  -3.15  -2.97   4.65   6.85
          8.58   9.41   9.77  11.55  14.18  15.41  21.48
  80  1 -10.03  -9.79  -9.73  -9.62  -8.62  -8.36  -7.94  -7.52  -7.29  -7.26
         -6.19  -5.90  -5.77  -5.54  -5.21  -3.63  -1.23  -0.50  -0.37   3.37
          3.86   7.52   9.85  12.03  12.47  14.54  17.66
  81  1  -9.71  -9.36  -9.32  -9.09  -8.56  -8.55  -7.96  -7.90  -7.15  -6.95
         -6.91  -6.29  -5.88  -5.88  -5.54  -1.50  -1.50   0.91   1.81   2.74
          3.02   5.03   7.20   7.53  12.26  15.10  15.31
  82  1  -9.57  -9.53  -9.41  -8.95  -8.94  -8.51  -8.16  -7.69  -7.67  -7.14
         -6.58  -6.56  -6.52  -5.41  -5.41  -3.74  -1.01  -0.80   2.43   2.44
          7.30   8.06   8.28   8.43  11.58  11.92  19.04
  83  1 -10.43  -9.63  -9.40  -9.30  -8.58  -8.53  -8.39  -7.88  -7.51  -7.35
         -6.84  -6.78  -5.99  -5.92  -5.69  -5.30  -3.15  -2.97   4.65   6.85
          8.58   9.41   9.77  11.55  14.18  15.41  21.48
  84  1 -11.33  -9.84  -9.43  -9.13  -8.53  -8.43  -8.15  -7.69  -7.61  -7.60
         -7.15  -6.74  -6.70  -6.60  -6.23  -5.41  -4.32  -3.83   6.52   7.44
          8.45  13.07  13.23  13.38  19.20  19.34  21.99
  85  1 -11.66  -9.67  -9.64  -8.71  -8.64  -8.40  -8.29  -8.25  -7.69  -7.61
         -6.95  -6.94  -6.92  -6.24  -6.20  -6.12  -4.35  -4.18   6.57   7.17
         11.41  11.45  16.51  17.45  17.63  17.76  23.32
  86  1 -11.34  -9.86  -9.37  -9.17  -8.51  -8.38  -8.17  -7.70  -7.63  -7.59
         -7.14  -6.72  -6.68  -6.55  -6.25  -5.45  -4.57  -3.67   7.12   7.16
          8.11  12.78  13.25  13.71  18.90  19.62  22.05
  87  1 -10.45  -9.66  -9.41  -9.21  -8.62  -8.47  -8.41  -7.86  -7.48  -7.41
         -6.79  -6.77  -5.98  -5.92  -5.73  -5.30  -3.39  -2.78   4.66   7.16
          8.83   8.87   9.48  11.82  14.48  15.07  21.58
  88  1  -9.57  -9.53  -9.41  -8.95  -8.94  -8.51  -8.16  -7.69  -7.67  -7.14
         -6.58  -6.56  -6.52  -5.41  -5.41  -3.74  -1.01  -0.80   2.43   2.44
          7.30   8.06   8.28   8.43  11.58  11.92  19.04
  89  1  -9.71  -9.36  -9.32  -9.09  -8.56  -8.55  -7.96  -7.90  -7.15  -6.95
         -6.91  -6.29  -5.88  -5.88  -5.54  -1.50  -1.50   0.91   1.81   2.74
          3.02   5.03   7.20   7.53  12.26  15.10  15.31
  90  1  -9.71  -9.36  -9.32  -9.09  -8.56  -8.55  -7.96  -7.90  -7.15  -6.95
         -6.91  -6.29  -5.88  -5.88  -5.54  -1.50  -1.50   0.91   1.81   2.74
          3.02   5.03   7.20   7.53  12.26  15.10  15.31
  91  1 -10.03  -9.79  -9.73  -9.62  -8.62  -8.36  -7.94  -7.52  -7.29  -7.26
         -6.19  -5.90  -5.77  -5.54  -5.21  -3.63  -1.23  -0.50  -0.37   3.37
          3.86   7.52   9.85  12.03  12.47  14.54  17.66
  92  1 -10.32 -10.10  -9.79  -9.68  -8.46  -8.13  -8.04  -7.53  -7.48  -7.37
         -5.97  -5.84  -5.79  -5.63  -5.41  -5.28  -3.11  -2.29   1.76   5.59
          6.15   8.99  10.36  11.02  16.83  17.08  18.99
  93  1 -10.43  -9.63  -9.40  -9.30  -8.58  -8.53  -8.39  -7.88  -7.51  -7.35
         -6.84  -6.78  -5.99  -5.92  -5.69  -5.30  -3.15  -2.97   4.65   6.85
          8.58   9.41   9.77  11.55  14.18  15.41  21.48
  94  1 -10.45  -9.66  -9.41  -9.21  -8.62  -8.47  -8.41  -7.86  -7.48  -7.41
         -6.79  -6.77  -5.98  -5.92  -5.73  -5.30  -3.39  -2.78   4.66   7.16
          8.83   8.87   9.48  11.82  14.48  15.07  21.58
  95  1 -10.37 -10.11  -9.80  -9.61  -8.49  -8.04  -7.99  -7.59  -7.55  -7.30
         -5.91  -5.84  -5.77  -5.64  -5.44  -5.30  -3.42  -2.09   1.77   5.89
          5.99   9.31  10.37  10.44  16.76  17.15  19.25
  96  1 -10.04  -9.85  -9.73  -9.55  -8.66  -8.34  -7.81  -7.60  -7.36  -7.19
         -6.16  -5.91  -5.78  -5.55  -5.22  -3.65  -1.45  -0.39  -0.24   3.59
          3.60   7.58  10.04  11.57  12.81  14.16  17.97
  97  1 -10.03  -9.79  -9.73  -9.62  -8.62  -8.36  -7.94  -7.52  -7.29  -7.26
         -6.19  -5.90  -5.77  -5.54  -5.21  -3.63  -1.23  -0.50  -0.37   3.37
          3.86   7.52   9.85  12.03  12.47  14.54  17.66
  98  1  -9.57  -9.53  -9.41  -8.95  -8.94  -8.51  -8.16  -7.69  -7.67  -7.14
         -6.58  -6.56  -6.52  -5.41  -5.41  -3.74  -1.01  -0.80   2.43   2.44
          7.30   8.06   8.28   8.43  11.58  11.92  19.04
  99  1 -10.04  -9.85  -9.73  -9.55  -8.66  -8.34  -7.81  -7.60  -7.36  -7.19
         -6.16  -5.91  -5.78  -5.55  -5.22  -3.65  -1.45  -0.39  -0.24   3.59
          3.60   7.58  10.04  11.57  12.81  14.16  17.97
 100  1 -10.29 -10.02 -10.00  -9.96  -8.41  -8.37  -7.55  -7.48  -7.41  -7.29
         -5.46  -5.37  -5.36  -5.11  -5.10  -2.67  -2.61  -1.84   0.90   1.11
          2.69   9.24   9.25  14.61  15.08  15.84  16.17
 101  1 -10.03  -9.79  -9.73  -9.62  -8.62  -8.36  -7.94  -7.52  -7.29  -7.26
         -6.19  -5.90  -5.77  -5.54  -5.21  -3.63  -1.23  -0.50  -0.37   3.37
          3.86   7.52   9.85  12.03  12.47  14.54  17.66
 102  1  -9.57  -9.53  -9.41  -8.95  -8.94  -8.51  -8.16  -7.69  -7.67  -7.14
         -6.58  -6.56  -6.52  -5.41  -5.41  -3.74  -1.01  -0.80   2.43   2.44
          7.30   8.06   8.28   8.43  11.58  11.92  19.04
 103  1 -10.04  -9.85  -9.73  -9.55  -8.66  -8.34  -7.81  -7.60  -7.36  -7.19
         -6.16  -5.91  -5.78  -5.55  -5.22  -3.65  -1.45  -0.39  -0.24   3.59
          3.60   7.58  10.04  11.57  12.81  14.16  17.97
 104  1 -10.29 -10.02 -10.00  -9.96  -8.41  -8.37  -7.55  -7.48  -7.41  -7.29
         -5.46  -5.37  -5.36  -5.11  -5.10  -2.67  -2.61  -1.84   0.90   1.11
          2.69   9.24   9.25  14.61  15.08  15.84  16.17
 105  1 -10.29 -10.09  -9.78  -9.71  -8.44  -8.20  -8.04  -7.50  -7.44  -7.40
         -6.00  -5.84  -5.80  -5.62  -5.39  -5.27  -2.96  -2.40   1.76   5.40
          6.29   8.83  10.36  11.32  16.67  17.24  18.85
 106  1 -10.42  -9.61  -9.39  -9.35  -8.56  -8.56  -8.37  -7.89  -7.52  -7.32
         -6.87  -6.79  -6.00  -5.91  -5.66  -5.30  -3.06  -3.04   4.65   6.67
          8.47   9.71   9.91  11.42  14.02  15.58  21.41
 107  1 -10.47  -9.68  -9.41  -9.16  -8.65  -8.44  -8.43  -7.85  -7.47  -7.44
         -6.77  -6.76  -5.98  -5.92  -5.74  -5.31  -3.50  -2.68   4.66   7.30
          8.54   9.04   9.34  11.96  14.63  14.91  21.62
 108  1 -10.39 -10.12  -9.81  -9.58  -8.50  -8.03  -7.92  -7.62  -7.59  -7.27
         -5.89  -5.83  -5.76  -5.64  -5.45  -5.32  -3.56  -1.99   1.78   5.75
          6.19   9.46  10.16  10.38  16.59  17.31  19.37
 109  1 -10.04  -9.88  -9.73  -9.51  -8.68  -8.32  -7.75  -7.64  -7.39  -7.16
         -6.15  -5.91  -5.79  -5.55  -5.23  -3.66  -1.55  -0.40  -0.11   3.48
          3.71   7.62  10.13  11.34  12.98  13.98  18.11
 110  1  -9.71  -9.38  -9.30  -9.09  -8.56  -8.54  -7.99  -7.87  -7.16  -6.97
         -6.89  -6.29  -5.88  -5.87  -5.54  -1.50  -1.50   0.90   1.81   2.61
          3.16   5.04   7.04   7.69  12.25  14.98  15.40
 111  1  -9.71  -9.38  -9.30  -9.09  -8.56  -8.54  -7.99  -7.87  -7.16  -6.97
         -6.89  -6.29  -5.88  -5.87  -5.54  -1.50  -1.50   0.90   1.81   2.61
          3.16   5.04   7.04   7.69  12.25  14.98  15.40
 112  1 -10.02  -9.75  -9.73  -9.66  -8.60  -8.37  -8.00  -7.48  -7.29  -7.26
         -6.21  -5.90  -5.77  -5.54  -5.20  -3.62  -1.12  -0.63  -0.36   3.26
          3.99   7.50   9.74  12.26  12.29  14.72  17.49
 113  1 -10.42  -9.61  -9.39  -9.35  -8.56  -8.56  -8.37  -7.89  -7.52  -7.32
         -6.87  -6.79  -6.00  -5.91  -5.66  -5.30  -3.06  -3.04   4.65   6.67
          8.47   9.71   9.91  11.42  14.02  15.58  21.41
 114  1 -11.33  -9.83  -9.46  -9.11  -8.54  -8.46  -8.13  -7.68  -7.62  -7.58
         -7.16  -6.75  -6.71  -6.63  -6.22  -5.40  -4.20  -3.91   6.23   7.52
          8.69  13.21  13.21  13.22  19.19  19.35  21.94
 115  1 -11.65  -9.69  -9.63  -8.74  -8.60  -8.41  -8.30  -8.23  -7.69  -7.61
         -6.95  -6.95  -6.91  -6.24  -6.24  -6.08  -4.43  -4.10   6.27   7.48
         11.39  11.48  16.46  17.30  17.67  17.92  23.30
 116  1 -11.35  -9.87  -9.35  -9.19  -8.49  -8.35  -8.18  -7.71  -7.65  -7.58
         -7.13  -6.71  -6.67  -6.53  -6.26  -5.47  -4.68  -3.59   6.95   7.42
          8.02  12.63  13.27  13.88  18.74  19.75  22.07
 117  1 -10.47  -9.68  -9.41  -9.16  -8.65  -8.44  -8.43  -7.85  -7.47  -7.44
         -6.77  -6.76  -5.98  -5.92  -5.74  -5.31  -3.50  -2.68   4.66   7.30
          8.54   9.04   9.34  11.96  14.63  14.91  21.62
 118  1  -9.59  -9.51  -9.41  -8.96  -8.94  -8.51  -8.17  -7.71  -7.65  -7.14
         -6.58  -6.58  -6.51  -5.41  -5.41  -3.74  -1.12  -0.70   2.44   2.44
          7.24   7.88   8.35   8.62  11.40  12.08  19.02
 119  1  -9.71  -9.38  -9.30  -9.09  -8.56  -8.54  -7.99  -7.87  -7.16  -6.97
         -6.89  -6.29  -5.88  -5.87  -5.54  -1.50  -1.50   0.90   1.81   2.61
          3.16   5.04   7.04   7.69  12.25  14.98  15.40
 120  1  -9.59  -9.51  -9.41  -8.96  -8.94  -8.51  -8.17  -7.71  -7.65  -7.14
         -6.58  -6.58  -6.51  -5.41  -5.41  -3.74  -1.12  -0.70   2.44   2.44
          7.24   7.88   8.35   8.62  11.40  12.08  19.02
 121  1 -10.47  -9.68  -9.41  -9.16  -8.65  -8.44  -8.43  -7.85  -7.47  -7.44
         -6.77  -6.76  -5.98  -5.92  -5.74  -5.31  -3.50  -2.68   4.66   7.30
          8.54   9.04   9.34  11.96  14.63  14.91  21.62
 122  1 -11.65  -9.69  -9.63  -8.74  -8.60  -8.41  -8.30  -8.23  -7.69  -7.61
         -6.95  -6.95  -6.91  -6.24  -6.24  -6.08  -4.43  -4.10   6.27   7.48
         11.39  11.48  16.46  17.30  17.67  17.92  23.30
 123  1 -12.44 -10.34 -10.31  -8.19  -8.14  -8.07  -7.94  -7.86  -7.85  -7.80
         -7.60  -7.57  -6.74  -6.52  -6.48  -5.60  -5.26  -5.05   5.40   6.74
         15.22  16.94  18.88  20.44  21.02  22.07  23.23
 124  1 -12.44 -10.38 -10.27  -8.17  -8.16  -8.09  -8.00  -7.88  -7.86  -7.66
         -7.64  -7.53  -6.69  -6.56  -6.33  -5.69  -5.59  -4.81   5.50   6.64
         15.11  17.06  19.38  20.06  20.55  22.43  23.21
 125  1 -11.65  -9.69  -9.63  -8.74  -8.60  -8.41  -8.30  -8.23  -7.69  -7.61
         -6.95  -6.95  -6.91  -6.24  -6.24  -6.08  -4.43  -4.10   6.27   7.48
         11.39  11.48  16.46  17.30  17.67  17.92  23.30
 126  1 -10.42  -9.61  -9.39  -9.35  -8.56  -8.56  -8.37  -7.89  -7.52  -7.32
         -6.87  -6.79  -6.00  -5.91  -5.66  -5.30  -3.06  -3.04   4.65   6.67
          8.47   9.71   9.91  11.42  14.02  15.58  21.41
 127  1 -10.02  -9.75  -9.73  -9.66  -8.60  -8.37  -8.00  -7.48  -7.29  -7.26
         -6.21  -5.90  -5.77  -5.54  -5.20  -3.62  -1.12  -0.63  -0.36   3.26
          3.99   7.50   9.74  12.26  12.29  14.72  17.49
 128  1 -10.04  -9.88  -9.73  -9.51  -8.68  -8.32  -7.75  -7.64  -7.39  -7.16
         -6.15  -5.91  -5.79  -5.55  -5.23  -3.66  -1.55  -0.40  -0.11   3.48
          3.71   7.62  10.13  11.34  12.98  13.98  18.11
 129  1 -10.39 -10.12  -9.81  -9.58  -8.50  -8.03  -7.92  -7.62  -7.59  -7.27
         -5.89  -5.83  -5.76  -5.64  -5.45  -5.32  -3.56  -1.99   1.78   5.75
          6.19   9.46  10.16  10.38  16.59  17.31  19.37
 130  1 -11.35  -9.87  -9.35  -9.19  -8.49  -8.35  -8.18  -7.71  -7.65  -7.58
         -7.13  -6.71  -6.67  -6.53  -6.26  -5.47  -4.68  -3.59   6.95   7.42
          8.02  12.63  13.27  13.88  18.74  19.75  22.07
 131  1 -12.44 -10.38 -10.27  -8.17  -8.16  -8.09  -8.00  -7.88  -7.86  -7.66
         -7.64  -7.53  -6.69  -6.56  -6.33  -5.69  -5.59  -4.81   5.50   6.64
         15.11  17.06  19.38  20.06  20.55  22.43  23.21
 132  1 -12.85 -10.77 -10.69  -8.03  -8.02  -8.02  -7.89  -7.89  -7.85  -7.85
         -7.36  -6.99  -6.57  -6.57  -6.05  -6.05  -5.92  -5.92   5.04   6.27
         20.01  20.01  20.28  20.28  23.49  23.53  23.53
 133  1 -12.44 -10.34 -10.31  -8.19  -8.14  -8.07  -7.94  -7.86  -7.85  -7.80
         -7.60  -7.57  -6.74  -6.52  -6.48  -5.60  -5.26  -5.05   5.40   6.74
         15.22  16.94  18.88  20.44  21.02  22.07  23.23
 134  1 -11.33  -9.83  -9.46  -9.11  -8.54  -8.46  -8.13  -7.68  -7.62  -7.58
         -7.16  -6.75  -6.71  -6.63  -6.22  -5.40  -4.20  -3.91   6.23   7.52
          8.69  13.21  13.21  13.22  19.19  19.35  21.94
 135  1 -10.29 -10.09  -9.78  -9.71  -8.44  -8.20  -8.04  -7.50  -7.44  -7.40
         -6.00  -5.84  -5.80  -5.62  -5.39  -5.27  -2.96  -2.40   1.76   5.40
          6.29   8.83  10.36  11.32  16.67  17.24  18.85
 136  1 -10.29 -10.05 -10.00  -9.93  -8.42  -8.36  -7.58  -7.47  -7.44  -7.22
         -5.46  -5.37  -5.36  -5.12  -5.10  -2.70  -2.59  -1.84   0.80   1.22
          2.71   9.23   9.26  14.36  15.31  15.68  16.33
 137  1 -10.04  -9.88  -9.73  -9.51  -8.68  -8.32  -7.75  -7.64  -7.39  -7.16
         -6.15  -5.91  -5.79  -5.55  -5.23  -3.66  -1.55  -0.40  -0.11   3.48
          3.71   7.62  10.13  11.34  12.98  13.98  18.11
 138  1 -10.47  -9.68  -9.41  -9.16  -8.65  -8.44  -8.43  -7.85  -7.47  -7.44
         -6.77  -6.76  -5.98  -5.92  -5.74  -5.31  -3.50  -2.68   4.66   7.30
          8.54   9.04   9.34  11.96  14.63  14.91  21.62
 139  1 -11.65  -9.69  -9.63  -8.74  -8.60  -8.41  -8.30  -8.23  -7.69  -7.61
         -6.95  -6.95  -6.91  -6.24  -6.24  -6.08  -4.43  -4.10   6.27   7.48
         11.39  11.48  16.46  17.30  17.67  17.92  23.30
 140  1 -12.44 -10.34 -10.31  -8.19  -8.14  -8.07  -7.94  -7.86  -7.85  -7.80
         -7.60  -7.57  -6.74  -6.52  -6.48  -5.60  -5.26  -5.05   5.40   6.74
         15.22  16.94  18.88  20.44  21.02  22.07  23.23
 141  1 -12.44 -10.38 -10.27  -8.17  -8.16  -8.09  -8.00  -7.88  -7.86  -7.66
         -7.64  -7.53  -6.69  -6.56  -6.33  -5.69  -5.59  -4.81   5.50   6.64
         15.11  17.06  19.38  20.06  20.55  22.43  23.21
 142  1 -11.65  -9.69  -9.63  -8.74  -8.60  -8.41  -8.30  -8.23  -7.69  -7.61
         -6.95  -6.95  -6.91  -6.24  -6.24  -6.08  -4.43  -4.10   6.27   7.48
         11.39  11.48  16.46  17.30  17.67  17.92  23.30
 143  1 -10.42  -9.61  -9.39  -9.35  -8.56  -8.56  -8.37  -7.89  -7.52  -7.32
         -6.87  -6.79  -6.00  -5.91  -5.66  -5.30  -3.06  -3.04   4.65   6.67
          8.47   9.71   9.91  11.42  14.02  15.58  21.41
 144  1 -10.02  -9.75  -9.73  -9.66  -8.60  -8.37  -8.00  -7.48  -7.29  -7.26
         -6.21  -5.90  -5.77  -5.54  -5.20  -3.62  -1.12  -0.63  -0.36   3.26
          3.99   7.50   9.74  12.26  12.29  14.72  17.49
 145  1  -9.71  -9.38  -9.30  -9.09  -8.56  -8.54  -7.99  -7.87  -7.16  -6.97
         -6.89  -6.29  -5.88  -5.87  -5.54  -1.50  -1.50   0.90   1.81   2.61
          3.16   5.04   7.04   7.69  12.25  14.98  15.40
 146  1  -9.59  -9.51  -9.41  -8.96  -8.94  -8.51  -8.17  -7.71  -7.65  -7.14
         -6.58  -6.58  -6.51  -5.41  -5.41  -3.74  -1.12  -0.70   2.44   2.44
          7.24   7.88   8.35   8.62  11.40  12.08  19.02
 147  1 -10.42  -9.61  -9.39  -9.35  -8.56  -8.56  -8.37  -7.89  -7.52  -7.32
         -6.87  -6.79  -6.00  -5.91  -5.66  -5.30  -3.06  -3.04   4.65   6.67
          8.47   9.71   9.91  11.42  14.02  15.58  21.41
 148  1 -11.33  -9.83  -9.46  -9.11  -8.54  -8.46  -8.13  -7.68  -7.62  -7.58
         -7.16  -6.75  -6.71  -6.63  -6.22  -5.40  -4.20  -3.91   6.23   7.52
          8.69  13.21  13.21  13.22  19.19  19.35  21.94
 149  1 -11.65  -9.69  -9.63  -8.74  -8.60  -8.41  -8.30  -8.23  -7.69  -7.61
         -6.95  -6.95  -6.91  -6.24  -6.24  -6.08  -4.43  -4.10   6.27   7.48
         11.39  11.48  16.46  17.30  17.67  17.92  23.30
 150  1 -11.35  -9.87  -9.35  -9.19  -8.49  -8.35  -8.18  -7.71  -7.65  -7.58
         -7.13  -6.71  -6.67  -6.53  -6.26  -5.47  -4.68  -3.59   6.95   7.42
          8.02  12.63  13.27  13.88  18.74  19.75  22.07
 151  1 -10.47  -9.68  -9.41  -9.16  -8.65  -8.44  -8.43  -7.85  -7.47  -7.44
         -6.77  -6.76  -5.98  -5.92  -5.74  -5.31  -3.50  -2.68   4.66   7.30
          8.54   9.04   9.34  11.96  14.63  14.91  21.62
 152  1  -9.59  -9.51  -9.41  -8.96  -8.94  -8.51  -8.17  -7.71  -7.65  -7.14
         -6.58  -6.58  -6.51  -5.41  -5.41  -3.74  -1.12  -0.70   2.44   2.44
          7.24   7.88   8.35   8.62  11.40  12.08  19.02
 153  1  -9.71  -9.38  -9.30  -9.09  -8.56  -8.54  -7.99  -7.87  -7.16  -6.97
         -6.89  -6.29  -5.88  -5.87  -5.54  -1.50  -1.50   0.90   1.81   2.61
          3.16   5.04   7.04   7.69  12.25  14.98  15.40
 154  1  -9.71  -9.38  -9.30  -9.09  -8.56  -8.54  -7.99  -7.87  -7.16  -6.97
         -6.89  -6.29  -5.88  -5.87  -5.54  -1.50  -1.50   0.90   1.81   2.61
          3.16   5.04   7.04   7.69  12.25  14.98  15.40
 155  1 -10.02  -9.75  -9.73  -9.66  -8.60  -8.37  -8.00  -7.48  -7.29  -7.26
         -6.21  -5.90  -5.77  -5.54  -5.20  -3.62  -1.12  -0.63  -0.36   3.26
          3.99   7.50   9.74  12.26  12.29  14.72  17.49
 156  1 -10.29 -10.09  -9.78  -9.71  -8.44  -8.20  -8.04  -7.50  -7.44  -7.40
         -6.00  -5.84  -5.80  -5.62  -5.39  -5.27  -2.96  -2.40   1.76   5.40
          6.29   8.83  10.36  11.32  16.67  17.24  18.85
 157  1 -10.42  -9.61  -9.39  -9.35  -8.56  -8.56  -8.37  -7.89  -7.52  -7.32
         -6.87  -6.79  -6.00  -5.91  -5.66  -5.30  -3.06  -3.04   4.65   6.67
          8.47   9.71   9.91  11.42  14.02  15.58  21.41
 158  1 -10.47  -9.68  -9.41  -9.16  -8.65  -8.44  -8.43  -7.85  -7.47  -7.44
         -6.77  -6.76  -5.98  -5.92  -5.74  -5.31  -3.50  -2.68   4.66   7.30
          8.54   9.04   9.34  11.96  14.63  14.91  21.62
 159  1 -10.39 -10.12  -9.81  -9.58  -8.50  -8.03  -7.92  -7.62  -7.59  -7.27
         -5.89  -5.83  -5.76  -5.64  -5.45  -5.32  -3.56  -1.99   1.78   5.75
          6.19   9.46  10.16  10.38  16.59  17.31  19.37
 160  1 -10.04  -9.88  -9.73  -9.51  -8.68  -8.32  -7.75  -7.64  -7.39  -7.16
         -6.15  -5.91  -5.79  -5.55  -5.23  -3.66  -1.55  -0.40  -0.11   3.48
          3.71   7.62  10.13  11.34  12.98  13.98  18.11
 161  1 -10.02  -9.75  -9.73  -9.66  -8.60  -8.37  -8.00  -7.48  -7.29  -7.26
         -6.21  -5.90  -5.77  -5.54  -5.20  -3.62  -1.12  -0.63  -0.36   3.26
          3.99   7.50   9.74  12.26  12.29  14.72  17.49
 162  1  -9.59  -9.51  -9.41  -8.96  -8.94  -8.51  -8.17  -7.71  -7.65  -7.14
         -6.58  -6.58  -6.51  -5.41  -5.41  -3.74  -1.12  -0.70   2.44   2.44
          7.24   7.88   8.35   8.62  11.40  12.08  19.02
 163  1 -10.04  -9.88  -9.73  -9.51  -8.68  -8.32  -7.75  -7.64  -7.39  -7.16
         -6.15  -5.91  -5.79  -5.55  -5.23  -3.66  -1.55  -0.40  -0.11   3.48
          3.71   7.62  10.13  11.34  12.98  13.98  18.11
 164  1 -10.29 -10.05 -10.00  -9.93  -8.42  -8.36  -7.58  -7.47  -7.44  -7.22
         -5.46  -5.37  -5.36  -5.12  -5.10  -2.70  -2.59  -1.84   0.80   1.22
          2.71   9.23   9.26  14.36  15.31  15.68  16.33
 165  1 -10.02  -9.75  -9.73  -9.66  -8.60  -8.37  -8.00  -7.48  -7.29  -7.26
         -6.21  -5.90  -5.77  -5.54  -5.20  -3.62  -1.12  -0.63  -0.36   3.26
          3.99   7.50   9.74  12.26  12.29  14.72  17.49
 166  1  -9.59  -9.51  -9.41  -8.96  -8.94  -8.51  -8.17  -7.71  -7.65  -7.14
         -6.58  -6.58  -6.51  -5.41  -5.41  -3.74  -1.12  -0.70   2.44   2.44
          7.24   7.88   8.35   8.62  11.40  12.08  19.02
 167  1 -10.04  -9.88  -9.73  -9.51  -8.68  -8.32  -7.75  -7.64  -7.39  -7.16
         -6.15  -5.91  -5.79  -5.55  -5.23  -3.66  -1.55  -0.40  -0.11   3.48
          3.71   7.62  10.13  11.34  12.98  13.98  18.11
 168  1 -10.29 -10.05 -10.00  -9.93  -8.42  -8.36  -7.58  -7.47  -7.44  -7.22
         -5.46  -5.37  -5.36  -5.12  -5.10  -2.70  -2.59  -1.84   0.80   1.22
          2.71   9.23   9.26  14.36  15.31  15.68  16.33
 169  1 -10.27 -10.08  -9.78  -9.75  -8.42  -8.27  -8.04  -7.47  -7.43  -7.40
         -6.03  -5.85  -5.81  -5.62  -5.38  -5.26  -2.81  -2.50   1.76   5.21
          6.42   8.66  10.36  11.61  16.51  17.40  18.70
 170  1 -10.40  -9.60  -9.39  -9.38  -8.58  -8.54  -8.36  -7.90  -7.53  -7.29
         -6.89  -6.79  -6.02  -5.91  -5.63  -5.29  -3.16  -2.91   4.66   6.48
          8.36  10.00  10.05  11.30  13.87  15.74  21.34
 171  1 -10.48  -9.69  -9.41  -9.12  -8.67  -8.44  -8.42  -7.84  -7.46  -7.46
         -6.76  -6.75  -6.00  -5.91  -5.75  -5.31  -3.61  -2.58   4.68   7.42
          8.25   9.20   9.22  12.10  14.74  14.78  21.65
 172  1 -10.42 -10.12  -9.81  -9.55  -8.51  -8.03  -7.84  -7.65  -7.62  -7.23
         -5.86  -5.83  -5.75  -5.65  -5.47  -5.34  -3.71  -1.89   1.80   5.63
          6.39   9.61   9.87  10.39  16.43  17.46  19.48
 173  1 -10.05  -9.91  -9.73  -9.48  -8.70  -8.31  -7.70  -7.68  -7.41  -7.13
         -6.15  -5.91  -5.80  -5.55  -5.23  -3.67  -1.65  -0.40   0.02   3.35
          3.82   7.66  10.20  11.10  13.15  13.79  18.24
 174  1  -9.71  -9.40  -9.28  -9.09  -8.57  -8.54  -8.02  -7.84  -7.17  -6.99
         -6.87  -6.30  -5.88  -5.87  -5.53  -1.50  -1.49   0.89   1.81   2.48
          3.30   5.07   6.88   7.86  12.22  14.85  15.47
 175  1  -9.71  -9.40  -9.28  -9.09  -8.57  -8.54  -8.02  -7.84  -7.17  -6.99
         -6.87  -6.30  -5.88  -5.87  -5.53  -1.50  -1.49   0.89   1.81   2.48
          3.30   5.07   6.88   7.86  12.22  14.85  15.47
 176  1 -10.02  -9.73  -9.72  -9.69  -8.58  -8.38  -8.06  -7.44  -7.32  -7.22
         -6.23  -5.89  -5.77  -5.53  -5.19  -3.61  -1.01  -0.75  -0.35   3.16
          4.12   7.48   9.63  12.12  12.49  14.90  17.32
 177  1 -10.40  -9.60  -9.39  -9.38  -8.58  -8.54  -8.36  -7.90  -7.53  -7.29
         -6.89  -6.79  -6.02  -5.91  -5.63  -5.29  -3.16  -2.91   4.66   6.48
          8.36  10.00  10.05  11.30  13.87  15.74  21.34
 178  1 -11.32  -9.82  -9.50  -9.09  -8.54  -8.48  -8.12  -7.68  -7.63  -7.56
         -7.17  -6.76  -6.73  -6.65  -6.21  -5.38  -4.07  -3.98   5.95   7.58
          8.96  13.05  13.22  13.36  19.05  19.50  21.89
 179  1 -11.65  -9.72  -9.62  -8.77  -8.56  -8.41  -8.32  -8.21  -7.68  -7.61
         -6.97  -6.95  -6.90  -6.29  -6.24  -6.04  -4.51  -4.01   5.98   7.79
         11.38  11.51  16.39  17.15  17.74  18.07  23.28
 180  1 -11.35  -9.89  -9.34  -9.21  -8.47  -8.32  -8.19  -7.71  -7.66  -7.57
         -7.13  -6.70  -6.65  -6.50  -6.27  -5.49  -4.80  -3.51   6.72   7.72
          7.96  12.49  13.30  14.05  18.59  19.89  22.07
 181  1 -10.48  -9.69  -9.41  -9.12  -8.67  -8.44  -8.42  -7.84  -7.46  -7.46
         -6.76  -6.75  -6.00  -5.91  -5.75  -5.31  -3.61  -2.58   4.68   7.42
          8.25   9.20   9.22  12.10  14.74  14.78  21.65
 182  1  -9.60  -9.49  -9.41  -8.96  -8.93  -8.51  -8.17  -7.72  -7.64  -7.14
         -6.60  -6.57  -6.50  -5.41  -5.40  -3.74  -1.22  -0.59   2.44   2.46
          7.14   7.69   8.45   8.81  11.23  12.24  18.99
 183  1  -9.71  -9.40  -9.28  -9.09  -8.57  -8.54  -8.02  -7.84  -7.17  -6.99
         -6.87  -6.30  -5.88  -5.87  -5.53  -1.50  -1.49   0.89   1.81   2.48
          3.30   5.07   6.88   7.86  12.22  14.85  15.47
 184  1  -9.60  -9.49  -9.41  -8.96  -8.93  -8.51  -8.17  -7.72  -7.64  -7.14
         -6.60  -6.57  -6.50  -5.41  -5.40  -3.74  -1.22  -0.59   2.44   2.46
          7.14   7.69   8.45   8.81  11.23  12.24  18.99
 185  1 -10.48  -9.69  -9.41  -9.12  -8.67  -8.44  -8.42  -7.84  -7.46  -7.46
         -6.76  -6.75  -6.00  -5.91  -5.75  -5.31  -3.61  -2.58   4.68   7.42
          8.25   9.20   9.22  12.10  14.74  14.78  21.65
 186  1 -11.65  -9.72  -9.62  -8.77  -8.56  -8.41  -8.32  -8.21  -7.68  -7.61
         -6.97  -6.95  -6.90  -6.29  -6.24  -6.04  -4.51  -4.01   5.98   7.79
         11.38  11.51  16.39  17.15  17.74  18.07  23.28
 187  1 -12.43 -10.36 -10.29  -8.20  -8.16  -8.09  -7.88  -7.85  -7.84  -7.81
         -7.59  -7.58  -6.75  -6.52  -6.51  -5.58  -5.17  -5.11   5.10   7.06
         15.26  16.91  18.76  20.53  21.14  21.97  23.20
 188  1 -12.43 -10.40 -10.25  -8.21  -8.16  -8.09  -7.99  -7.88  -7.87  -7.65
         -7.61  -7.52  -6.68  -6.57  -6.29  -5.72  -5.67  -4.74   5.21   6.96
         15.09  17.10  19.51  19.96  20.43  22.51  23.18
 189  1 -11.65  -9.72  -9.62  -8.77  -8.56  -8.41  -8.32  -8.21  -7.68  -7.61
         -6.97  -6.95  -6.90  -6.29  -6.24  -6.04  -4.51  -4.01   5.98   7.79
         11.38  11.51  16.39  17.15  17.74  18.07  23.28
 190  1 -10.40  -9.60  -9.39  -9.38  -8.58  -8.54  -8.36  -7.90  -7.53  -7.29
         -6.89  -6.79  -6.02  -5.91  -5.63  -5.29  -3.16  -2.91   4.66   6.48
          8.36  10.00  10.05  11.30  13.87  15.74  21.34
 191  1 -10.02  -9.73  -9.72  -9.69  -8.58  -8.38  -8.06  -7.44  -7.32  -7.22
         -6.23  -5.89  -5.77  -5.53  -5.19  -3.61  -1.01  -0.75  -0.35   3.16
          4.12   7.48   9.63  12.12  12.49  14.90  17.32
 192  1 -10.05  -9.91  -9.73  -9.48  -8.70  -8.31  -7.70  -7.68  -7.41  -7.13
         -6.15  -5.91  -5.80  -5.55  -5.23  -3.67  -1.65  -0.40   0.02   3.35
          3.82   7.66  10.20  11.10  13.15  13.79  18.24
 193  1 -10.42 -10.12  -9.81  -9.55  -8.51  -8.03  -7.84  -7.65  -7.62  -7.23
         -5.86  -5.83  -5.75  -5.65  -5.47  -5.34  -3.71  -1.89   1.80   5.63
          6.39   9.61   9.87  10.39  16.43  17.46  19.48
 194  1 -11.35  -9.89  -9.34  -9.21  -8.47  -8.32  -8.19  -7.71  -7.66  -7.57
         -7.13  -6.70  -6.65  -6.50  -6.27  -5.49  -4.80  -3.51   6.72   7.72
          7.96  12.49  13.30  14.05  18.59  19.89  22.07
 195  1 -12.43 -10.40 -10.25  -8.21  -8.16  -8.09  -7.99  -7.88  -7.87  -7.65
         -7.61  -7.52  -6.68  -6.57  -6.29  -5.72  -5.67  -4.74   5.21   6.96
         15.09  17.10  19.51  19.96  20.43  22.51  23.18
 196  1 -12.85 -10.79 -10.68  -8.03  -8.02  -8.02  -7.90  -7.90  -7.84  -7.84
         -7.44  -6.88  -6.57  -6.57  -6.08  -6.08  -5.89  -5.89   4.74   6.60
         19.95  19.95  20.35  20.35  23.45  23.52  23.52
 197  1 -12.43 -10.36 -10.29  -8.20  -8.16  -8.09  -7.88  -7.85  -7.84  -7.81
         -7.59  -7.58  -6.75  -6.52  -6.51  -5.58  -5.17  -5.11   5.10   7.06
         15.26  16.91  18.76  20.53  21.14  21.97  23.20
 198  1 -11.32  -9.82  -9.50  -9.09  -8.54  -8.48  -8.12  -7.68  -7.63  -7.56
         -7.17  -6.76  -6.73  -6.65  -6.21  -5.38  -4.07  -3.98   5.95   7.58
          8.96  13.05  13.22  13.36  19.05  19.50  21.89
 199  1 -10.27 -10.08  -9.78  -9.75  -8.42  -8.27  -8.04  -7.47  -7.43  -7.40
         -6.03  -5.85  -5.81  -5.62  -5.38  -5.26  -2.81  -2.50   1.76   5.21
          6.42   8.66  10.36  11.61  16.51  17.40  18.70
 200  1 -10.29 -10.08 -10.00  -9.90  -8.44  -8.34  -7.62  -7.53  -7.41  -7.15
         -5.46  -5.37  -5.36  -5.13  -5.10  -2.73  -2.56  -1.84   0.70   1.33
          2.73   9.20   9.27  14.12  15.51  15.54  16.49
 201  1 -10.05  -9.91  -9.73  -9.48  -8.70  -8.31  -7.70  -7.68  -7.41  -7.13
         -6.15  -5.91  -5.80  -5.55  -5.23  -3.67  -1.65  -0.40   0.02   3.35
          3.82   7.66  10.20  11.10  13.15  13.79  18.24
 202  1 -10.48  -9.69  -9.41  -9.12  -8.67  -8.44  -8.42  -7.84  -7.46  -7.46
         -6.76  -6.75  -6.00  -5.91  -5.75  -5.31  -3.61  -2.58   4.68   7.42
          8.25   9.20   9.22  12.10  14.74  14.78  21.65
 203  1 -11.65  -9.72  -9.62  -8.77  -8.56  -8.41  -8.32  -8.21  -7.68  -7.61
         -6.97  -6.95  -6.90  -6.29  -6.24  -6.04  -4.51  -4.01   5.98   7.79
         11.38  11.51  16.39  17.15  17.74  18.07  23.28
 204  1 -12.43 -10.36 -10.29  -8.20  -8.16  -8.09  -7.88  -7.85  -7.84  -7.81
         -7.59  -7.58  -6.75  -6.52  -6.51  -5.58  -5.17  -5.11   5.10   7.06
         15.26  16.91  18.76  20.53  21.14  21.97  23.20
 205  1 -12.43 -10.40 -10.25  -8.21  -8.16  -8.09  -7.99  -7.88  -7.87  -7.65
         -7.61  -7.52  -6.68  -6.57  -6.29  -5.72  -5.67  -4.74   5.21   6.96
         15.09  17.10  19.51  19.96  20.43  22.51  23.18
 206  1 -11.65  -9.72  -9.62  -8.77  -8.56  -8.41  -8.32  -8.21  -7.68  -7.61
         -6.97  -6.95  -6.90  -6.29  -6.24  -6.04  -4.51  -4.01   5.98   7.79
         11.38  11.51  16.39  17.15  17.74  18.07  23.28
 207  1 -10.40  -9.60  -9.39  -9.38  -8.58  -8.54  -8.36  -7.90  -7.53  -7.29
         -6.89  -6.79  -6.02  -5.91  -5.63  -5.29  -3.16  -2.91   4.66   6.48
          8.36  10.00  10.05  11.30  13.87  15.74  21.34
 208  1 -10.02  -9.73  -9.72  -9.69  -8.58  -8.38  -8.06  -7.44  -7.32  -7.22
         -6.23  -5.89  -5.77  -5.53  -5.19  -3.61  -1.01  -0.75  -0.35   3.16
          4.12   7.48   9.63  12.12  12.49  14.90  17.32
 209  1  -9.71  -9.40  -9.28  -9.09  -8.57  -8.54  -8.02  -7.84  -7.17  -6.99
         -6.87  -6.30  -5.88  -5.87  -5.53  -1.50  -1.49   0.89   1.81   2.48
          3.30   5.07   6.88   7.86  12.22  14.85  15.47
 210  1  -9.60  -9.49  -9.41  -8.96  -8.93  -8.51  -8.17  -7.72  -7.64  -7.14
         -6.60  -6.57  -6.50  -5.41  -5.40  -3.74  -1.22  -0.59   2.44   2.46
          7.14   7.69   8.45   8.81  11.23  12.24  18.99
 211  1 -10.40  -9.60  -9.39  -9.38  -8.58  -8.54  -8.36  -7.90  -7.53  -7.29
         -6.89  -6.79  -6.02  -5.91  -5.63  -5.29  -3.16  -2.91   4.66   6.48
          8.36  10.00  10.05  11.30  13.87  15.74  21.34
 212  1 -11.32  -9.82  -9.50  -9.09  -8.54  -8.48  -8.12  -7.68  -7.63  -7.56
         -7.17  -6.76  -6.73  -6.65  -6.21  -5.38  -4.07  -3.98   5.95   7.58
          8.96  13.05  13.22  13.36  19.05  19.50  21.89
 213  1 -11.65  -9.72  -9.62  -8.77  -8.56  -8.41  -8.32  -8.21  -7.68  -7.61
         -6.97  -6.95  -6.90  -6.29  -6.24  -6.04  -4.51  -4.01   5.98   7.79
         11.38  11.51  16.39  17.15  17.74  18.07  23.28
 214  1 -11.35  -9.89  -9.34  -9.21  -8.47  -8.32  -8.19  -7.71  -7.66  -7.57
         -7.13  -6.70  -6.65  -6.50  -6.27  -5.49  -4.80  -3.51   6.72   7.72
          7.96  12.49  13.30  14.05  18.59  19.89  22.07
 215  1 -10.48  -9.69  -9.41  -9.12  -8.67  -8.44  -8.42  -7.84  -7.46  -7.46
         -6.76  -6.75  -6.00  -5.91  -5.75  -5.31  -3.61  -2.58   4.68   7.42
          8.25   9.20   9.22  12.10  14.74  14.78  21.65
 216  1  -9.60  -9.49  -9.41  -8.96  -8.93  -8.51  -8.17  -7.72  -7.64  -7.14
         -6.60  -6.57  -6.50  -5.41  -5.40  -3.74  -1.22  -0.59   2.44   2.46
          7.14   7.69   8.45   8.81  11.23  12.24  18.99
 217  1  -9.71  -9.40  -9.28  -9.09  -8.57  -8.54  -8.02  -7.84  -7.17  -6.99
         -6.87  -6.30  -5.88  -5.87  -5.53  -1.50  -1.49   0.89   1.81   2.48
          3.30   5.07   6.88   7.86  12.22  14.85  15.47
 218  1  -9.71  -9.40  -9.28  -9.09  -8.57  -8.54  -8.02  -7.84  -7.17  -6.99
         -6.87  -6.30  -5.88  -5.87  -5.53  -1.50  -1.49   0.89   1.81   2.48
          3.30   5.07   6.88   7.86  12.22  14.85  15.47
 219  1 -10.02  -9.73  -9.72  -9.69  -8.58  -8.38  -8.06  -7.44  -7.32  -7.22
         -6.23  -5.89  -5.77  -5.53  -5.19  -3.61  -1.01  -0.75  -0.35   3.16
          4.12   7.48   9.63  12.12  12.49  14.90  17.32
 220  1 -10.27 -10.08  -9.78  -9.75  -8.42  -8.27  -8.04  -7.47  -7.43  -7.40
         -6.03  -5.85  -5.81  -5.62  -5.38  -5.26  -2.81  -2.50   1.76   5.21
          6.42   8.66  10.36  11.61  16.51  17.40  18.70
 221  1 -10.40  -9.60  -9.39  -9.38  -8.58  -8.54  -8.36  -7.90  -7.53  -7.29
         -6.89  -6.79  -6.02  -5.91  -5.63  -5.29  -3.16  -2.91   4.66   6.48
          8.36  10.00  10.05  11.30  13.87  15.74  21.34
 222  1 -10.48  -9.69  -9.41  -9.12  -8.67  -8.44  -8.42  -7.84  -7.46  -7.46
         -6.76  -6.75  -6.00  -5.91  -5.75  -5.31  -3.61  -2.58   4.68   7.42
          8.25   9.20   9.22  12.10  14.74  14.78  21.65
 223  1 -10.42 -10.12  -9.81  -9.55  -8.51  -8.03  -7.84  -7.65  -7.62  -7.23
         -5.86  -5.83  -5.75  -5.65  -5.47  -5.34  -3.71  -1.89   1.80   5.63
          6.39   9.61   9.87  10.39  16.43  17.46  19.48
 224  1 -10.05  -9.91  -9.73  -9.48  -8.70  -8.31  -7.70  -7.68  -7.41  -7.13
         -6.15  -5.91  -5.80  -5.55  -5.23  -3.67  -1.65  -0.40   0.02   3.35
          3.82   7.66  10.20  11.10  13.15  13.79  18.24
 225  1 -10.02  -9.73  -9.72  -9.69  -8.58  -8.38  -8.06  -7.44  -7.32  -7.22
         -6.23  -5.89  -5.77  -5.53  -5.19  -3.61  -1.01  -0.75  -0.35   3.16
          4.12   7.48   9.63  12.12  12.49  14.90  17.32
 226  1  -9.60  -9.49  -9.41  -8.96  -8.93  -8.51  -8.17  -7.72  -7.64  -7.14
         -6.60  -6.57  -6.50  -5.41  -5.40  -3.74  -1.22  -0.59   2.44   2.46
          7.14   7.69   8.45   8.81  11.23  12.24  18.99
 227  1 -10.05  -9.91  -9.73  -9.48  -8.70  -8.31  -7.70  -7.68  -7.41  -7.13
         -6.15  -5.91  -5.80  -5.55  -5.23  -3.67  -1.65  -0.40   0.02   3.35
          3.82   7.66  10.20  11.10  13.15  13.79  18.24
 228  1 -10.29 -10.08 -10.00  -9.90  -8.44  -8.34  -7.62  -7.53  -7.41  -7.15
         -5.46  -5.37  -5.36  -5.13  -5.10  -2.73  -2.56  -1.84   0.70   1.33
          2.73   9.20   9.27  14.12  15.51  15.54  16.49
 229  1 -10.02  -9.73  -9.72  -9.69  -8.58  -8.38  -8.06  -7.44  -7.32  -7.22
         -6.23  -5.89  -5.77  -5.53  -5.19  -3.61  -1.01  -0.75  -0.35   3.16
          4.12   7.48   9.63  12.12  12.49  14.90  17.32
 230  1  -9.60  -9.49  -9.41  -8.96  -8.93  -8.51  -8.17  -7.72  -7.64  -7.14
         -6.60  -6.57  -6.50  -5.41  -5.40  -3.74  -1.22  -0.59   2.44   2.46
          7.14   7.69   8.45   8.81  11.23  12.24  18.99
 231  1 -10.05  -9.91  -9.73  -9.48  -8.70  -8.31  -7.70  -7.68  -7.41  -7.13
         -6.15  -5.91  -5.80  -5.55  -5.23  -3.67  -1.65  -0.40   0.02   3.35
          3.82   7.66  10.20  11.10  13.15  13.79  18.24
 232  1 -10.29 -10.08 -10.00  -9.90  -8.44  -8.34  -7.62  -7.53  -7.41  -7.15
         -5.46  -5.37  -5.36  -5.13  -5.10  -2.73  -2.56  -1.84   0.70   1.33
          2.73   9.20   9.27  14.12  15.51  15.54  16.49
 233  1 -10.24 -10.07  -9.79  -9.77  -8.41  -8.33  -8.04  -7.47  -7.44  -7.36
         -6.07  -5.85  -5.82  -5.61  -5.37  -5.25  -2.65  -2.60   1.76   5.02
          6.56   8.50  10.38  11.91  16.35  17.55  18.55
 234  1 -10.39  -9.59  -9.44  -9.36  -8.61  -8.52  -8.34  -7.91  -7.55  -7.26
         -6.92  -6.79  -6.04  -5.90  -5.61  -5.29  -3.25  -2.79   4.67   6.28
          8.27  10.20  10.30  11.17  13.73  15.91  21.25
 235  1 -10.48  -9.71  -9.41  -9.07  -8.69  -8.45  -8.39  -7.83  -7.48  -7.45
         -6.74  -6.74  -6.02  -5.90  -5.75  -5.32  -3.72  -2.48   4.69   7.54
          7.97   9.06   9.42  12.24  14.57  14.93  21.66
 236  1 -10.44 -10.13  -9.81  -9.52  -8.52  -8.02  -7.77  -7.67  -7.65  -7.20
         -5.83  -5.82  -5.74  -5.65  -5.49  -5.36  -3.85  -1.79   1.82   5.50
          6.59   9.59   9.76  10.42  16.26  17.61  19.58
 237  1 -10.05  -9.94  -9.73  -9.44  -8.71  -8.30  -7.72  -7.65  -7.42  -7.09
         -6.15  -5.92  -5.82  -5.55  -5.23  -3.68  -1.75  -0.40   0.16   3.23
          3.94   7.71  10.28  10.87  13.32  13.60  18.37
 238  1  -9.70  -9.42  -9.25  -9.09  -8.57  -8.54  -8.05  -7.82  -7.18  -7.01
         -6.85  -6.30  -5.88  -5.86  -5.52  -1.49  -1.48   0.88   1.81   2.35
          3.44   5.11   6.72   8.03  12.18  14.72  15.54
 239  1  -9.70  -9.42  -9.25  -9.09  -8.57  -8.54  -8.05  -7.82  -7.18  -7.01
         -6.85  -6.30  -5.88  -5.86  -5.52  -1.49  -1.48   0.88   1.81   2.35
          3.44   5.11   6.72   8.03  12.18  14.72  15.54
 240  1 -10.01  -9.73  -9.72  -9.69  -8.56  -8.40  -8.12  -7.41  -7.34  -7.18
         -6.25  -5.89  -5.78  -5.53  -5.18  -3.60  -0.89  -0.88  -0.33   3.05
          4.25   7.47   9.51  11.95  12.72  15.08  17.14
 241  1 -10.39  -9.59  -9.44  -9.36  -8.61  -8.52  -8.34  -7.91  -7.55  -7.26
         -6.92  -6.79  -6.04  -5.90  -5.61  -5.29  -3.25  -2.79   4.67   6.28
          8.27  10.20  10.30  11.17  13.73  15.91  21.25
 242  1 -11.31  -9.81  -9.55  -9.06  -8.54  -8.51  -8.10  -7.67  -7.64  -7.54
         -7.19  -6.77  -6.74  -6.66  -6.20  -5.37  -4.06  -3.94   5.66   7.63
          9.24  12.88  13.22  13.50  18.91  19.64  21.82
 243  1 -11.64  -9.75  -9.61  -8.80  -8.52  -8.41  -8.33  -8.19  -7.68  -7.60
         -6.98  -6.95  -6.89  -6.33  -6.24  -6.00  -4.58  -3.92   5.69   8.10
         11.37  11.55  16.30  16.99  17.82  18.22  23.24
 244  1 -11.35  -9.90  -9.32  -9.22  -8.46  -8.30  -8.20  -7.72  -7.67  -7.56
         -7.12  -6.69  -6.64  -6.47  -6.28  -5.51  -4.91  -3.42   6.47   7.93
          8.03  12.35  13.32  14.21  18.44  20.02  22.07
 245  1 -10.48  -9.71  -9.41  -9.07  -8.69  -8.45  -8.39  -7.83  -7.48  -7.45
         -6.74  -6.74  -6.02  -5.90  -5.75  -5.32  -3.72  -2.48   4.69   7.54
          7.97   9.06   9.42  12.24  14.57  14.93  21.66
 246  1  -9.62  -9.47  -9.42  -8.96  -8.92  -8.51  -8.18  -7.74  -7.63  -7.13
         -6.62  -6.56  -6.49  -5.40  -5.40  -3.73  -1.32  -0.49   2.45   2.47
          7.03   7.51   8.57   9.01  11.05  12.39  18.95
 247  1  -9.70  -9.42  -9.25  -9.09  -8.57  -8.54  -8.05  -7.82  -7.18  -7.01
         -6.85  -6.30  -5.88  -5.86  -5.52  -1.49  -1.48   0.88   1.81   2.35
          3.44   5.11   6.72   8.03  12.18  14.72  15.54
 248  1  -9.62  -9.47  -9.42  -8.96  -8.92  -8.51  -8.18  -7.74  -7.63  -7.13
         -6.62  -6.56  -6.49  -5.40  -5.40  -3.73  -1.32  -0.49   2.45   2.47
          7.03   7.51   8.57   9.01  11.05  12.39  18.95
 249  1 -10.48  -9.71  -9.41  -9.07  -8.69  -8.45  -8.39  -7.83  -7.48  -7.45
         -6.74  -6.74  -6.02  -5.90  -5.75  -5.32  -3.72  -2.48   4.69   7.54
          7.97   9.06   9.42  12.24  14.57  14.93  21.66
 250  1 -11.64  -9.75  -9.61  -8.80  -8.52  -8.41  -8.33  -8.19  -7.68  -7.60
         -6.98  -6.95  -6.89  -6.33  -6.24  -6.00  -4.58  -3.92   5.69   8.10
         11.37  11.55  16.30  16.99  17.82  18.22  23.24
 251  1 -12.43 -10.39 -10.28  -8.21  -8.19  -8.10  -7.84  -7.83  -7.82  -7.82
         -7.59  -7.58  -6.77  -6.56  -6.50  -5.56  -5.16  -5.08   4.81   7.39
         15.29  16.89  18.63  20.60  21.25  21.87  23.16
 252  1 -12.43 -10.43 -10.24  -8.26  -8.16  -8.09  -7.97  -7.88  -7.87  -7.66
         -7.56  -7.52  -6.67  -6.58  -6.25  -5.75  -5.74  -4.68   4.91   7.29
         15.08  17.14  19.63  19.86  20.31  22.59  23.13
 253  1 -11.64  -9.75  -9.61  -8.80  -8.52  -8.41  -8.33  -8.19  -7.68  -7.60
         -6.98  -6.95  -6.89  -6.33  -6.24  -6.00  -4.58  -3.92   5.69   8.10
         11.37  11.55  16.30  16.99  17.82  18.22  23.24
 254  1 -10.39  -9.59  -9.44  -9.36  -8.61  -8.52  -8.34  -7.91  -7.55  -7.26
         -6.92  -6.79  -6.04  -5.90  -5.61  -5.29  -3.25  -2.79   4.67   6.28
          8.27  10.20  10.30  11.17  13.73  15.91  21.25
 255  1 -10.01  -9.73  -9.72  -9.69  -8.56  -8.40  -8.12  -7.41  -7.34  -7.18
         -6.25  -5.89  -5.78  -5.53  -5.18  -3.60  -0.89  -0.88  -0.33   3.05
          4.25   7.47   9.51  11.95  12.72  15.08  17.14
 256  1 -10.05  -9.94  -9.73  -9.44  -8.71  -8.30  -7.72  -7.65  -7.42  -7.09
         -6.15  -5.92  -5.82  -5.55  -5.23  -3.68  -1.75  -0.40   0.16   3.23
          3.94   7.71  10.28  10.87  13.32  13.60  18.37
 257  1 -10.44 -10.13  -9.81  -9.52  -8.52  -8.02  -7.77  -7.67  -7.65  -7.20
         -5.83  -5.82  -5.74  -5.65  -5.49  -5.36  -3.85  -1.79   1.82   5.50
          6.59   9.59   9.76  10.42  16.26  17.61  19.58
 258  1 -11.35  -9.90  -9.32  -9.22  -8.46  -8.30  -8.20  -7.72  -7.67  -7.56
         -7.12  -6.69  -6.64  -6.47  -6.28  -5.51  -4.91  -3.42   6.47   7.93
          8.03  12.35  13.32  14.21  18.44  20.02  22.07
 259  1 -12.43 -10.43 -10.24  -8.26  -8.16  -8.09  -7.97  -7.88  -7.87  -7.66
         -7.56  -7.52  -6.67  -6.58  -6.25  -5.75  -5.74  -4.68   4.91   7.29
         15.08  17.14  19.63  19.86  20.31  22.59  23.13
 260  1 -12.84 -10.82 -10.66  -8.03  -8.01  -8.01  -7.91  -7.91  -7.83  -7.83
         -7.52  -6.78  -6.57  -6.57  -6.11  -6.11  -5.86  -5.86   4.45   6.92
         19.89  19.89  20.42  20.42  23.39  23.51  23.51
 261  1 -12.43 -10.39 -10.28  -8.21  -8.19  -8.10  -7.84  -7.83  -7.82  -7.82
         -7.59  -7.58  -6.77  -6.56  -6.50  -5.56  -5.16  -5.08   4.81   7.39
         15.29  16.89  18.63  20.60  21.25  21.87  23.16
 262  1 -11.31  -9.81  -9.55  -9.06  -8.54  -8.51  -8.10  -7.67  -7.64  -7.54
         -7.19  -6.77  -6.74  -6.66  -6.20  -5.37  -4.06  -3.94   5.66   7.63
          9.24  12.88  13.22  13.50  18.91  19.64  21.82
 263  1 -10.24 -10.07  -9.79  -9.77  -8.41  -8.33  -8.04  -7.47  -7.44  -7.36
         -6.07  -5.85  -5.82  -5.61  -5.37  -5.25  -2.65  -2.60   1.76   5.02
          6.56   8.50  10.38  11.91  16.35  17.55  18.55
 264  1 -10.28 -10.11  -9.99  -9.87  -8.46  -8.32  -7.65  -7.58  -7.37  -7.08
         -5.47  -5.38  -5.36  -5.15  -5.11  -2.77  -2.54  -1.85   0.60   1.45
          2.77   9.17   9.29  13.88  15.35  15.76  16.65
 265  1 -10.05  -9.94  -9.73  -9.44  -8.71  -8.30  -7.72  -7.65  -7.42  -7.09
         -6.15  -5.92  -5.82  -5.55  -5.23  -3.68  -1.75  -0.40   0.16   3.23
          3.94   7.71  10.28  10.87  13.32  13.60  18.37
 266  1 -10.48  -9.71  -9.41  -9.07  -8.69  -8.45  -8.39  -7.83  -7.48  -7.45
         -6.74  -6.74  -6.02  -5.90  -5.75  -5.32  -3.72  -2.48   4.69   7.54
          7.97   9.06   9.42  12.24  14.57  14.93  21.66
 267  1 -11.64  -9.75  -9.61  -8.80  -8.52  -8.41  -8.33  -8.19  -7.68  -7.60
         -6.98  -6.95  -6.89  -6.33  -6.24  -6.00  -4.58  -3.92   5.69   8.10
         11.37  11.55  16.30  16.99  17.82  18.22  23.24
 268  1 -12.43 -10.39 -10.28  -8.21  -8.19  -8.10  -7.84  -7.83  -7.82  -7.82
         -7.59  -7.58  -6.77  -6.56  -6.50  -5.56  -5.16  -5.08   4.81   7.39
         15.29  16.89  18.63  20.60  21.25  21.87  23.16
 269  1 -12.43 -10.43 -10.24  -8.26  -8.16  -8.09  -7.97  -7.88  -7.87  -7.66
         -7.56  -7.52  -6.67  -6.58  -6.25  -5.75  -5.74  -4.68   4.91   7.29
         15.08  17.14  19.63  19.86  20.31  22.59  23.13
 270  1 -11.64  -9.75  -9.61  -8.80  -8.52  -8.41  -8.33  -8.19  -7.68  -7.60
         -6.98  -6.95  -6.89  -6.33  -6.24  -6.00  -4.58  -3.92   5.69   8.10
         11.37  11.55  16.30  16.99  17.82  18.22  23.24
 271  1 -10.39  -9.59  -9.44  -9.36  -8.61  -8.52  -8.34  -7.91  -7.55  -7.26
         -6.92  -6.79  -6.04  -5.90  -5.61  -5.29  -3.25  -2.79   4.67   6.28
          8.27  10.20  10.30  11.17  13.73  15.91  21.25
 272  1 -10.01  -9.73  -9.72  -9.69  -8.56  -8.40  -8.12  -7.41  -7.34  -7.18
         -6.25  -5.89  -5.78  -5.53  -5.18  -3.60  -0.89  -0.88  -0.33   3.05
          4.25   7.47   9.51  11.95  12.72  15.08  17.14
 273  1  -9.70  -9.42  -9.25  -9.09  -8.57  -8.54  -8.05  -7.82  -7.18  -7.01
         -6.85  -6.30  -5.88  -5.86  -5.52  -1.49  -1.48   0.88   1.81   2.35
          3.44   5.11   6.72   8.03  12.18  14.72  15.54
 274  1  -9.62  -9.47  -9.42  -8.96  -8.92  -8.51  -8.18  -7.74  -7.63  -7.13
         -6.62  -6.56  -6.49  -5.40  -5.40  -3.73  -1.32  -0.49   2.45   2.47
          7.03   7.51   8.57   9.01  11.05  12.39  18.95
 275  1 -10.39  -9.59  -9.44  -9.36  -8.61  -8.52  -8.34  -7.91  -7.55  -7.26
         -6.92  -6.79  -6.04  -5.90  -5.61  -5.29  -3.25  -2.79   4.67   6.28
          8.27  10.20  10.30  11.17  13.73  15.91  21.25
 276  1 -11.31  -9.81  -9.55  -9.06  -8.54  -8.51  -8.10  -7.67  -7.64  -7.54
         -7.19  -6.77  -6.74  -6.66  -6.20  -5.37  -4.06  -3.94   5.66   7.63
          9.24  12.88  13.22  13.50  18.91  19.64  21.82
 277  1 -11.64  -9.75  -9.61  -8.80  -8.52  -8.41  -8.33  -8.19  -7.68  -7.60
         -6.98  -6.95  -6.89  -6.33  -6.24  -6.00  -4.58  -3.92   5.69   8.10
         11.37  11.55  16.30  16.99  17.82  18.22  23.24
 278  1 -11.35  -9.90  -9.32  -9.22  -8.46  -8.30  -8.20  -7.72  -7.67  -7.56
         -7.12  -6.69  -6.64  -6.47  -6.28  -5.51  -4.91  -3.42   6.47   7.93
          8.03  12.35  13.32  14.21  18.44  20.02  22.07
 279  1 -10.48  -9.71  -9.41  -9.07  -8.69  -8.45  -8.39  -7.83  -7.48  -7.45
         -6.74  -6.74  -6.02  -5.90  -5.75  -5.32  -3.72  -2.48   4.69   7.54
          7.97   9.06   9.42  12.24  14.57  14.93  21.66
 280  1  -9.62  -9.47  -9.42  -8.96  -8.92  -8.51  -8.18  -7.74  -7.63  -7.13
         -6.62  -6.56  -6.49  -5.40  -5.40  -3.73  -1.32  -0.49   2.45   2.47
          7.03   7.51   8.57   9.01  11.05  12.39  18.95
 281  1  -9.70  -9.42  -9.25  -9.09  -8.57  -8.54  -8.05  -7.82  -7.18  -7.01
         -6.85  -6.30  -5.88  -5.86  -5.52  -1.49  -1.48   0.88   1.81   2.35
          3.44   5.11   6.72   8.03  12.18  14.72  15.54
 282  1  -9.70  -9.42  -9.25  -9.09  -8.57  -8.54  -8.05  -7.82  -7.18  -7.01
         -6.85  -6.30  -5.88  -5.86  -5.52  -1.49  -1.48   0.88   1.81   2.35
          3.44   5.11   6.72   8.03  12.18  14.72  15.54
 283  1 -10.01  -9.73  -9.72  -9.69  -8.56  -8.40  -8.12  -7.41  -7.34  -7.18
         -6.25  -5.89  -5.78  -5.53  -5.18  -3.60  -0.89  -0.88  -0.33   3.05
          4.25   7.47   9.51  11.95  12.72  15.08  17.14
 284  1 -10.24 -10.07  -9.79  -9.77  -8.41  -8.33  -8.04  -7.47  -7.44  -7.36
         -6.07  -5.85  -5.82  -5.61  -5.37  -5.25  -2.65  -2.60   1.76   5.02
          6.56   8.50  10.38  11.91  16.35  17.55  18.55
 285  1 -10.39  -9.59  -9.44  -9.36  -8.61  -8.52  -8.34  -7.91  -7.55  -7.26
         -6.92  -6.79  -6.04  -5.90  -5.61  -5.29  -3.25  -2.79   4.67   6.28
          8.27  10.20  10.30  11.17  13.73  15.91  21.25
 286  1 -10.48  -9.71  -9.41  -9.07  -8.69  -8.45  -8.39  -7.83  -7.48  -7.45
         -6.74  -6.74  -6.02  -5.90  -5.75  -5.32  -3.72  -2.48   4.69   7.54
          7.97   9.06   9.42  12.24  14.57  14.93  21.66
 287  1 -10.44 -10.13  -9.81  -9.52  -8.52  -8.02  -7.77  -7.67  -7.65  -7.20
         -5.83  -5.82  -5.74  -5.65  -5.49  -5.36  -3.85  -1.79   1.82   5.50
          6.59   9.59   9.76  10.42  16.26  17.61  19.58
 288  1 -10.05  -9.94  -9.73  -9.44  -8.71  -8.30  -7.72  -7.65  -7.42  -7.09
         -6.15  -5.92  -5.82  -5.55  -5.23  -3.68  -1.75  -0.40   0.16   3.23
          3.94   7.71  10.28  10.87  13.32  13.60  18.37
 289  1 -10.01  -9.73  -9.72  -9.69  -8.56  -8.40  -8.12  -7.41  -7.34  -7.18
         -6.25  -5.89  -5.78  -5.53  -5.18  -3.60  -0.89  -0.88  -0.33   3.05
          4.25   7.47   9.51  11.95  12.72  15.08  17.14
[...]
         -6.32  -5.95  -5.69  -5.47  -5.26  -3.48  -3.24   0.13   0.82   3.00
          6.13   6.96   8.74   9.55  11.50  16.74  18.05
1896  1 -10.58  -9.91  -9.87  -9.52  -9.44  -8.07  -8.06  -6.86  -6.70  -6.24
         -6.15  -5.43  -5.41  -5.27  -5.26  -3.92  -2.18  -2.16  -0.58   4.40
          4.51   8.09   8.32  11.20  11.45  19.00  19.01
1897  1 -10.57 -10.02  -9.70  -9.48  -9.10  -7.99  -7.96  -7.16  -6.99  -6.37
         -6.33  -6.29  -5.79  -5.58  -5.53  -5.31  -5.27   0.91   1.81   2.86
          5.02   9.93  12.27  12.45  13.03  18.65  19.90
1898  1 -10.35 -10.05  -9.27  -9.14  -8.83  -8.06  -8.03  -7.96  -7.73  -7.56
         -6.76  -6.63  -5.94  -5.64  -5.43  -5.42  -5.37   0.44   2.08   6.02
          6.21   9.91  10.95  13.58  16.49  16.99  19.13
1899  1 -10.35 -10.05  -9.27  -9.14  -8.83  -8.06  -8.03  -7.96  -7.73  -7.56
         -6.76  -6.63  -5.94  -5.64  -5.43  -5.42  -5.37   0.44   2.08   6.02
          6.21   9.91  10.95  13.58  16.49  16.99  19.13
1900  1 -10.57 -10.02  -9.70  -9.48  -9.10  -7.99  -7.96  -7.16  -6.99  -6.37
         -6.33  -6.29  -5.79  -5.58  -5.53  -5.31  -5.27   0.91   1.81   2.86
          5.02   9.93  12.27  12.45  13.03  18.65  19.90
1901  1 -10.29  -9.64  -9.55  -9.40  -9.21  -8.22  -7.80  -7.51  -7.43  -6.70
         -6.29  -5.98  -5.71  -5.45  -5.24  -3.43  -3.26   0.17   0.75   3.01
          6.09   7.02   8.72   9.44  11.68  16.80  17.92
1902  1  -9.59  -9.19  -9.19  -8.87  -8.87  -8.64  -8.16  -8.16  -7.55  -7.22
         -6.55  -6.55  -5.55  -5.43  -5.43  -0.60  -0.60  -0.39  -0.36   3.25
          3.25   7.00   7.00  10.37  10.37  11.81  14.34
1903  1  -9.59  -9.19  -9.19  -8.87  -8.87  -8.64  -8.16  -8.16  -7.55  -7.22
         -6.55  -6.55  -5.55  -5.43  -5.43  -0.60  -0.60  -0.39  -0.36   3.25
          3.25   7.00   7.00  10.37  10.37  11.81  14.34
1904  1 -10.29  -9.64  -9.55  -9.40  -9.21  -8.22  -7.80  -7.51  -7.43  -6.70
         -6.29  -5.98  -5.71  -5.45  -5.24  -3.43  -3.26   0.17   0.75   3.01
          6.09   7.02   8.72   9.44  11.68  16.80  17.92
1905  1 -10.35 -10.05  -9.27  -9.14  -8.83  -8.06  -8.03  -7.96  -7.73  -7.56
         -6.76  -6.63  -5.94  -5.64  -5.43  -5.42  -5.37   0.44   2.08   6.02
          6.21   9.91  10.95  13.58  16.49  16.99  19.13
1906  1 -10.84 -10.68  -9.56  -9.09  -8.61  -8.17  -7.75  -7.67  -7.65  -7.32
         -7.02  -6.84  -6.84  -6.59  -6.04  -5.79  -5.59  -0.36   0.42   9.20
          9.30  14.76  15.32  15.32  17.77  17.86  21.90
1907  1 -10.97 -10.97  -9.58  -8.71  -8.71  -8.63  -7.70  -7.70  -7.56  -7.32
         -7.32  -7.22  -6.70  -6.70  -6.02  -6.02  -5.55  -0.40  -0.37  11.81
         13.14  13.14  14.35  16.90  16.90  21.03  21.03
1908  1 -10.84 -10.68  -9.56  -9.09  -8.61  -8.17  -7.75  -7.67  -7.65  -7.32
         -7.02  -6.84  -6.84  -6.59  -6.04  -5.79  -5.59  -0.36   0.42   9.20
          9.30  14.76  15.32  15.32  17.77  17.86  21.90
1909  1 -10.35 -10.05  -9.27  -9.14  -8.83  -8.06  -8.03  -7.96  -7.73  -7.56
         -6.76  -6.63  -5.94  -5.64  -5.43  -5.42  -5.37   0.44   2.08   6.02
          6.21   9.91  10.95  13.58  16.49  16.99  19.13
1910  1  -9.68  -9.68  -9.21  -8.58  -8.58  -8.46  -8.45  -8.08  -8.08  -7.00
         -7.00  -6.70  -5.57  -5.57  -5.10  -3.33  -3.33   1.99   3.66   3.67
          3.95   3.95   7.86  12.27  12.27  14.99  14.99
1911  1  -9.59  -9.19  -9.19  -8.87  -8.87  -8.64  -8.16  -8.16  -7.55  -7.22
         -6.55  -6.55  -5.55  -5.43  -5.43  -0.60  -0.60  -0.39  -0.36   3.25
          3.25   7.00   7.00  10.37  10.37  11.81  14.34
1912  1  -9.68  -9.68  -9.21  -8.58  -8.58  -8.46  -8.45  -8.08  -8.08  -7.00
         -7.00  -6.70  -5.57  -5.57  -5.10  -3.33  -3.33   1.99   3.66   3.67
          3.95   3.95   7.86  12.27  12.27  14.99  14.99
1913  1 -10.35 -10.05  -9.27  -9.14  -8.83  -8.06  -8.03  -7.96  -7.73  -7.56
         -6.76  -6.63  -5.94  -5.64  -5.43  -5.42  -5.37   0.44   2.08   6.02
          6.21   9.91  10.95  13.58  16.49  16.99  19.13
1914  1 -10.97 -10.97  -9.58  -8.71  -8.71  -8.63  -7.70  -7.70  -7.56  -7.32
         -7.32  -7.22  -6.70  -6.70  -6.02  -6.02  -5.55  -0.40  -0.37  11.81
         13.14  13.14  14.35  16.90  16.90  21.03  21.03
1915  1 -11.65 -11.65 -10.21  -8.55  -8.41  -8.27  -7.77  -7.68  -7.60  -7.57
         -7.51  -6.98  -6.95  -6.64  -6.30  -6.25  -5.47  -2.24  -0.57  15.87
         16.52  16.76  17.62  17.63  19.11  21.95  23.33
1916  1 -11.65 -11.65 -10.21  -8.55  -8.41  -8.27  -7.77  -7.68  -7.60  -7.57
         -7.51  -6.98  -6.95  -6.64  -6.30  -6.25  -5.47  -2.24  -0.57  15.87
         16.52  16.76  17.62  17.63  19.11  21.95  23.33
1917  1 -10.97 -10.97  -9.58  -8.71  -8.71  -8.63  -7.70  -7.70  -7.56  -7.32
         -7.32  -7.22  -6.70  -6.70  -6.02  -6.02  -5.55  -0.40  -0.37  11.81
         13.14  13.14  14.35  16.90  16.90  21.03  21.03
1918  1 -10.35 -10.05  -9.27  -9.14  -8.83  -8.06  -8.03  -7.96  -7.73  -7.56
         -6.76  -6.63  -5.94  -5.64  -5.43  -5.42  -5.37   0.44   2.08   6.02
          6.21   9.91  10.95  13.58  16.49  16.99  19.13
1919  1 -10.29  -9.64  -9.55  -9.40  -9.21  -8.22  -7.80  -7.51  -7.43  -6.70
         -6.29  -5.98  -5.71  -5.45  -5.24  -3.43  -3.26   0.17   0.75   3.01
          6.09   7.02   8.72   9.44  11.68  16.80  17.92
1920  1 -10.29  -9.64  -9.55  -9.40  -9.21  -8.22  -7.80  -7.51  -7.43  -6.70
         -6.29  -5.98  -5.71  -5.45  -5.24  -3.43  -3.26   0.17   0.75   3.01
          6.09   7.02   8.72   9.44  11.68  16.80  17.92
1921  1 -10.57 -10.02  -9.70  -9.48  -9.10  -7.99  -7.96  -7.16  -6.99  -6.37
         -6.33  -6.29  -5.79  -5.58  -5.53  -5.31  -5.27   0.91   1.81   2.86
          5.02   9.93  12.27  12.45  13.03  18.65  19.90
1922  1 -10.84 -10.68  -9.56  -9.09  -8.61  -8.17  -7.75  -7.67  -7.65  -7.32
         -7.02  -6.84  -6.84  -6.59  -6.04  -5.79  -5.59  -0.36   0.42   9.20
          9.30  14.76  15.32  15.32  17.77  17.86  21.90
1923  1 -11.65 -11.65 -10.21  -8.55  -8.41  -8.27  -7.77  -7.68  -7.60  -7.57
         -7.51  -6.98  -6.95  -6.64  -6.30  -6.25  -5.47  -2.24  -0.57  15.87
         16.52  16.76  17.62  17.63  19.11  21.95  23.33
1924  1 -12.05 -12.05 -10.58  -8.22  -8.22  -8.06  -8.06  -7.78  -7.78  -7.78
         -7.78  -6.62  -6.62  -6.62  -6.62  -5.42  -5.42  -3.93  -0.60  16.74
         16.74  19.01  19.01  22.38  22.38  22.38  22.38
1925  1 -11.65 -11.65 -10.21  -8.55  -8.41  -8.27  -7.77  -7.68  -7.60  -7.57
         -7.51  -6.98  -6.95  -6.64  -6.30  -6.25  -5.47  -2.24  -0.57  15.87
         16.52  16.76  17.62  17.63  19.11  21.95  23.33
1926  1 -10.84 -10.68  -9.56  -9.09  -8.61  -8.17  -7.75  -7.67  -7.65  -7.32
         -7.02  -6.84  -6.84  -6.59  -6.04  -5.79  -5.59  -0.36   0.42   9.20
          9.30  14.76  15.32  15.32  17.77  17.86  21.90
1927  1 -10.57 -10.02  -9.70  -9.48  -9.10  -7.99  -7.96  -7.16  -6.99  -6.37
         -6.33  -6.29  -5.79  -5.58  -5.53  -5.31  -5.27   0.91   1.81   2.86
          5.02   9.93  12.27  12.45  13.03  18.65  19.90
1928  1 -10.58  -9.89  -9.89  -9.48  -9.48  -8.07  -8.06  -6.78  -6.78  -6.19
         -6.19  -5.42  -5.41  -5.27  -5.27  -3.93  -2.17  -2.17  -0.58   4.46
          4.46   8.20   8.20  11.32  11.32  19.01  19.02
1929  1 -10.29  -9.64  -9.55  -9.40  -9.21  -8.22  -7.80  -7.51  -7.43  -6.70
         -6.29  -5.98  -5.71  -5.45  -5.24  -3.43  -3.26   0.17   0.75   3.01
          6.09   7.02   8.72   9.44  11.68  16.80  17.92
1930  1 -10.35 -10.05  -9.27  -9.14  -8.83  -8.06  -8.03  -7.96  -7.73  -7.56
         -6.76  -6.63  -5.94  -5.64  -5.43  -5.42  -5.37   0.44   2.08   6.02
          6.21   9.91  10.95  13.58  16.49  16.99  19.13
1931  1 -10.97 -10.97  -9.58  -8.71  -8.71  -8.63  -7.70  -7.70  -7.56  -7.32
         -7.32  -7.22  -6.70  -6.70  -6.02  -6.02  -5.55  -0.40  -0.37  11.81
         13.14  13.14  14.35  16.90  16.90  21.03  21.03
1932  1 -11.65 -11.65 -10.21  -8.55  -8.41  -8.27  -7.77  -7.68  -7.60  -7.57
         -7.51  -6.98  -6.95  -6.64  -6.30  -6.25  -5.47  -2.24  -0.57  15.87
         16.52  16.76  17.62  17.63  19.11  21.95  23.33
1933  1 -11.65 -11.65 -10.21  -8.55  -8.41  -8.27  -7.77  -7.68  -7.60  -7.57
         -7.51  -6.98  -6.95  -6.64  -6.30  -6.25  -5.47  -2.24  -0.57  15.87
         16.52  16.76  17.62  17.63  19.11  21.95  23.33
1934  1 -10.97 -10.97  -9.58  -8.71  -8.71  -8.63  -7.70  -7.70  -7.56  -7.32
         -7.32  -7.22  -6.70  -6.70  -6.02  -6.02  -5.55  -0.40  -0.37  11.81
         13.14  13.14  14.35  16.90  16.90  21.03  21.03
1935  1 -10.35 -10.05  -9.27  -9.14  -8.83  -8.06  -8.03  -7.96  -7.73  -7.56
         -6.76  -6.63  -5.94  -5.64  -5.43  -5.42  -5.37   0.44   2.08   6.02
          6.21   9.91  10.95  13.58  16.49  16.99  19.13
1936  1 -10.29  -9.64  -9.55  -9.40  -9.21  -8.22  -7.80  -7.51  -7.43  -6.70
         -6.29  -5.98  -5.71  -5.45  -5.24  -3.43  -3.26   0.17   0.75   3.01
          6.09   7.02   8.72   9.44  11.68  16.80  17.92
1937  1  -9.59  -9.19  -9.19  -8.87  -8.87  -8.64  -8.16  -8.16  -7.55  -7.22
         -6.55  -6.55  -5.55  -5.43  -5.43  -0.60  -0.60  -0.39  -0.36   3.25
          3.25   7.00   7.00  10.37  10.37  11.81  14.34
1938  1  -9.68  -9.68  -9.21  -8.58  -8.58  -8.46  -8.45  -8.08  -8.08  -7.00
         -7.00  -6.70  -5.57  -5.57  -5.10  -3.33  -3.33   1.99   3.66   3.67
          3.95   3.95   7.86  12.27  12.27  14.99  14.99
1939  1 -10.35 -10.05  -9.27  -9.14  -8.83  -8.06  -8.03  -7.96  -7.73  -7.56
         -6.76  -6.63  -5.94  -5.64  -5.43  -5.42  -5.37   0.44   2.08   6.02
          6.21   9.91  10.95  13.58  16.49  16.99  19.13
1940  1 -10.84 -10.68  -9.56  -9.09  -8.61  -8.17  -7.75  -7.67  -7.65  -7.32
         -7.02  -6.84  -6.84  -6.59  -6.04  -5.79  -5.59  -0.36   0.42   9.20
          9.30  14.76  15.32  15.32  17.77  17.86  21.90
1941  1 -10.97 -10.97  -9.58  -8.71  -8.71  -8.63  -7.70  -7.70  -7.56  -7.32
         -7.32  -7.22  -6.70  -6.70  -6.02  -6.02  -5.55  -0.40  -0.37  11.81
         13.14  13.14  14.35  16.90  16.90  21.03  21.03
1942  1 -10.84 -10.68  -9.56  -9.09  -8.61  -8.17  -7.75  -7.67  -7.65  -7.32
         -7.02  -6.84  -6.84  -6.59  -6.04  -5.79  -5.59  -0.36   0.42   9.20
          9.30  14.76  15.32  15.32  17.77  17.86  21.90
1943  1 -10.35 -10.05  -9.27  -9.14  -8.83  -8.06  -8.03  -7.96  -7.73  -7.56
         -6.76  -6.63  -5.94  -5.64  -5.43  -5.42  -5.37   0.44   2.08   6.02
          6.21   9.91  10.95  13.58  16.49  16.99  19.13
1944  1  -9.68  -9.68  -9.21  -8.58  -8.58  -8.46  -8.45  -8.08  -8.08  -7.00
         -7.00  -6.70  -5.57  -5.57  -5.10  -3.33  -3.33   1.99   3.66   3.67
          3.95   3.95   7.86  12.27  12.27  14.99  14.99
1945  1  -9.59  -9.19  -9.19  -8.87  -8.87  -8.64  -8.16  -8.16  -7.55  -7.22
         -6.55  -6.55  -5.55  -5.43  -5.43  -0.60  -0.60  -0.39  -0.36   3.25
          3.25   7.00   7.00  10.37  10.37  11.81  14.34
1946  1  -9.59  -9.19  -9.19  -8.87  -8.87  -8.64  -8.16  -8.16  -7.55  -7.22
         -6.55  -6.55  -5.55  -5.43  -5.43  -0.60  -0.60  -0.39  -0.36   3.25
          3.25   7.00   7.00  10.37  10.37  11.81  14.34
1947  1 -10.29  -9.64  -9.55  -9.40  -9.21  -8.22  -7.80  -7.51  -7.43  -6.70
         -6.29  -5.98  -5.71  -5.45  -5.24  -3.43  -3.26   0.17   0.75   3.01
          6.09   7.02   8.72   9.44  11.68  16.80  17.92
1948  1 -10.57 -10.02  -9.70  -9.48  -9.10  -7.99  -7.96  -7.16  -6.99  -6.37
         -6.33  -6.29  -5.79  -5.58  -5.53  -5.31  -5.27   0.91   1.81   2.86
          5.02   9.93  12.27  12.45  13.03  18.65  19.90
1949  1 -10.35 -10.05  -9.27  -9.14  -8.83  -8.06  -8.03  -7.96  -7.73  -7.56
         -6.76  -6.63  -5.94  -5.64  -5.43  -5.42  -5.37   0.44   2.08   6.02
          6.21   9.91  10.95  13.58  16.49  16.99  19.13
1950  1 -10.35 -10.05  -9.27  -9.14  -8.83  -8.06  -8.03  -7.96  -7.73  -7.56
         -6.76  -6.63  -5.94  -5.64  -5.43  -5.42  -5.37   0.44   2.08   6.02
          6.21   9.91  10.95  13.58  16.49  16.99  19.13
1951  1 -10.57 -10.02  -9.70  -9.48  -9.10  -7.99  -7.96  -7.16  -6.99  -6.37
         -6.33  -6.29  -5.79  -5.58  -5.53  -5.31  -5.27   0.91   1.81   2.86
          5.02   9.93  12.27  12.45  13.03  18.65  19.90
1952  1 -10.29  -9.64  -9.55  -9.40  -9.21  -8.22  -7.80  -7.51  -7.43  -6.70
         -6.29  -5.98  -5.71  -5.45  -5.24  -3.43  -3.26   0.17   0.75   3.01
          6.09   7.02   8.72   9.44  11.68  16.80  17.92
1953  1 -10.29  -9.64  -9.55  -9.40  -9.21  -8.22  -7.80  -7.51  -7.43  -6.70
         -6.29  -5.98  -5.71  -5.45  -5.24  -3.43  -3.26   0.17   0.75   3.01
          6.09   7.02   8.72   9.44  11.68  16.80  17.92
1954  1  -9.68  -9.68  -9.21  -8.58  -8.58  -8.46  -8.45  -8.08  -8.08  -7.00
         -7.00  -6.70  -5.57  -5.57  -5.10  -3.33  -3.33   1.99   3.66   3.67
          3.95   3.95   7.86  12.27  12.27  14.99  14.99
1955  1 -10.29  -9.64  -9.55  -9.40  -9.21  -8.22  -7.80  -7.51  -7.43  -6.70
         -6.29  -5.98  -5.71  -5.45  -5.24  -3.43  -3.26   0.17   0.75   3.01
          6.09   7.02   8.72   9.44  11.68  16.80  17.92
1956  1 -10.58  -9.89  -9.89  -9.48  -9.48  -8.07  -8.06  -6.78  -6.78  -6.19
         -6.19  -5.42  -5.41  -5.27  -5.27  -3.93  -2.17  -2.17  -0.58   4.46
          4.46   8.20   8.20  11.32  11.32  19.01  19.02
1957  1 -10.29  -9.64  -9.55  -9.40  -9.21  -8.22  -7.80  -7.51  -7.43  -6.70
         -6.29  -5.98  -5.71  -5.45  -5.24  -3.43  -3.26   0.17   0.75   3.01
          6.09   7.02   8.72   9.44  11.68  16.80  17.92
1958  1  -9.68  -9.68  -9.21  -8.58  -8.58  -8.46  -8.45  -8.08  -8.08  -7.00
         -7.00  -6.70  -5.57  -5.57  -5.10  -3.33  -3.33   1.99   3.66   3.67
          3.95   3.95   7.86  12.27  12.27  14.99  14.99
1959  1 -10.29  -9.64  -9.55  -9.40  -9.21  -8.22  -7.80  -7.51  -7.43  -6.70
         -6.29  -5.98  -5.71  -5.45  -5.24  -3.43  -3.26   0.17   0.75   3.01
          6.09   7.02   8.72   9.44  11.68  16.80  17.92
1960  1 -10.58  -9.89  -9.89  -9.48  -9.48  -8.07  -8.06  -6.78  -6.78  -6.19
         -6.19  -5.42  -5.41  -5.27  -5.27  -3.93  -2.17  -2.17  -0.58   4.46
          4.46   8.20   8.20  11.32  11.32  19.01  19.02
siesta: Fermi energy =      -3.417773 eV

siesta: Program's energy decomposition (eV):
siesta: Ebs     =      -250.027742
siesta: Eions   =      3513.674752
siesta: Ena     =       174.746453
siesta: Ekin    =      1909.086290
siesta: Enl     =      -884.138108
siesta: DEna    =        23.462341
siesta: DUscf   =         1.156112
siesta: DUext   =         0.000000
siesta: Exc     =      -424.669072
siesta: eta*DQ  =         0.000000
siesta: Emadel  =         0.000000
siesta: Emeta   =         0.000000
siesta: Emolmec =         0.000000
siesta: Ekinion =         0.000000
siesta: Eharris =     -2714.031658
siesta: Etot    =     -2714.030736
siesta: FreeEng =     -2714.031056

siesta: Final energy (eV):
siesta:  Band Struct. =    -250.027742
siesta:       Kinetic =    1909.086290
siesta:       Hartree =     308.793000
siesta:    Ext. field =       0.000000
siesta:   Exch.-corr. =    -424.669072
siesta:  Ion-electron =   -2220.938832
siesta:       Ion-ion =   -2286.302123
siesta:       Ekinion =       0.000000
siesta:         Total =   -2714.030736

siesta: Stress tensor (static) (eV/Ang**3):
siesta:     0.016478   -0.000000    0.000000
siesta:    -0.000000    0.016479   -0.000001
siesta:     0.000000   -0.000001    0.033000

siesta: Cell volume =         52.983633 Ang**3

siesta: Pressure (static):
siesta:                Solid            Molecule  Units
siesta:          -0.00023945         -0.00023945  Ry/Bohr**3
siesta:          -0.02198566         -0.02198547  eV/Ang**3
siesta:         -35.22529377        -35.22498548  kBar
(Free)E+ p_basis*V_orbitals  =       -2711.952285
(Free)Eharris+ p_basis*V_orbitals  =       -2711.953253

* Maximum dynamic memory allocated : Node    0 =    34 MB
* Maximum dynamic memory allocated : Node    1 =    34 MB
* Maximum dynamic memory allocated : Node    2 =    33 MB
* Maximum dynamic memory allocated : Node    3 =    33 MB

* Maximum memory occured during cdiag                         

timer: CPU execution times:
timer:  Routine       Calls   Time/call    Tot.time        %
timer:  siesta            1     197.612     197.612   100.00
timer:  Setup             1       1.830       1.830     0.93
timer:  bands             1       0.009       0.009     0.00
timer:  writewave         1       0.004       0.004     0.00
timer:  KSV_init          1       0.000       0.000     0.00
timer:  IterMD            1     192.062     192.062    97.19
timer:  hsparse           1       0.031       0.031     0.02
timer:  overlap           1       0.364       0.364     0.18
timer:  IterSCF           9      20.090     180.811    91.50
timer:  kinefsm           2       0.177       0.354     0.18
timer:  nlefsm            2       5.568      11.135     5.63
timer:  DHSCF            11       3.219      35.410    17.92
timer:  DHSCF1            1       0.822       0.822     0.42
timer:  DHSCF2            1       8.825       8.825     4.47
timer:  REORD            70       0.000       0.020     0.01
timer:  POISON           12       0.025       0.295     0.15
timer:  DHSCF3           11       2.080      22.883    11.58
timer:  rhoofd           11       1.256      13.818     6.99
timer:  cellXC           11       0.032       0.354     0.18
timer:  vmat             10       0.703       7.034     3.56
timer:  MolMec            2       0.000       0.000     0.00
timer:  diagon            9      15.999     143.995    72.87
timer:  cdiag          8820       0.002      15.382     7.78
timer:  cdiag1         8820       0.000       0.587     0.30
timer:  cdiag2         8820       0.000       1.542     0.78
timer:  cdiag3         8820       0.001      12.101     6.12
timer:  cdiag4         8820       0.000       0.582     0.29
timer:  DHSCF4            1       2.869       2.869     1.45
timer:  dfscf             1       2.239       2.239     1.13
timer:  overfsm           1       0.021       0.021     0.01
timer:  optical           1       1.704       1.704     0.86
  

elaps: ELAPSED times:
elaps:  Routine       Calls   Time/call    Tot.time        %
elaps:  siesta            1      49.470      49.470   100.00
elaps:  Setup             1       0.460       0.460     0.93
elaps:  bands             1       0.001       0.001     0.00
elaps:  writewave         1       0.001       0.001     0.00
elaps:  KSV_init          1       0.000       0.000     0.00
elaps:  IterMD            1      48.071      48.071    97.17
elaps:  hsparse           1       0.007       0.007     0.01
elaps:  overlap           1       0.103       0.103     0.21
elaps:  IterSCF           9       5.029      45.259    91.49
elaps:  kinefsm           2       0.050       0.100     0.20
elaps:  nlefsm            2       1.264       2.527     5.11
elaps:  DHSCF            11       0.810       8.907    18.00
elaps:  DHSCF1            1       0.199       0.199     0.40
elaps:  DHSCF2            1       2.214       2.214     4.48
elaps:  REORD            70       0.000       0.002     0.00
elaps:  POISON           12       0.006       0.076     0.15
elaps:  DHSCF3           11       0.520       5.723    11.57
elaps:  rhoofd           11       0.340       3.738     7.56
elaps:  cellXC           11       0.008       0.086     0.17
elaps:  vmat             10       0.176       1.756     3.55
elaps:  MolMec            2       0.000       0.000     0.00
elaps:  diagon            9       4.001      36.009    72.79
elaps:  cdiag          8820       0.000       3.835     7.75
elaps:  cdiag1         8820       0.000       0.162     0.33
elaps:  cdiag2         8820       0.000       0.419     0.85
elaps:  cdiag3         8820       0.000       2.934     5.93
elaps:  cdiag4         8820       0.000       0.155     0.31
elaps:  DHSCF4            1       0.769       0.769     1.55
elaps:  dfscf             1       0.607       0.607     1.23
elaps:  overfsm           1       0.005       0.005     0.01
elaps:  optical           1       0.000       0.000     0.00
  
>> End of run:  24-MAR-2013  13:33:02
