Siesta Version  : v4.1-b4-351
Architecture    : x86_64-linux-n-62-26-19
Compiler version: GNU Fortran (GCC) 9.3.0
Compiler flags  : mpifort -m64 -fPIC -O3 -march=native -ftree-vectorize -fexpensive-optimizatioons -funroll-loops -fprefetch-loop-arrays -fno-second-underscore  -flto
PP flags        : -I/dtu/sw/dcc/SL73/2020-aug/generic/build-tools/1.0/include -I/dtu/sw/dcc/SL773/2020-aug/generic/gcc/9.3.0/include -I/dtu/sw/dcc/SL73/2020-aug/generic/gcc/9.3.0/include -I/dtu/sw/dcc/SL73/2020-aug/XeonE5-2660v3/gnu/9.3.0/zlib/1.2.11/include -I/dtu/sw/dcc/SL73/2020-aug/generic/numactl/2.0.12/include -I/dtu/sw/dcc/SL73/2020-aug/XeonE5-2660v3/gnu/9.3.0/libxml2/2.9.10/include -I/dtu/sw/dcc/SL73/2020-aug/XeonE5-2660v3/gnu/9.3.0/hwloc/2.2.0/include -I/dtu/sw/dcc/SL73/2020-aug/XeonE5-2660v3/gnu/9.3.0/knem/1.1.4/include -I/dtu/sw/dcc/SL73/2020-aug/XeonE5-2660v3/gnu/9.3.0/ucx/1.8.1/include -I/dtu/sw/dcc/SL73/2020-aug/XeonE5-2660v3/gnu/9.3.0/openmpi/4.0.4/include -I/dtu/sw/dcc/SL73/2020-aug/XeonE5-2660v3/gnu/9.3.0/szip/2.1.1/include -I/dtu/sw/dcc/SL73/2020-aug/XeonE5-2660v3/gnu/9.3.0/hdf5/1.12.0/include -I/dtu/sw/dcc/SL73/2020-aug/XeonE5-2660v3/gnu/9.3.0/pnetcdf/1.12.1/include -I/dtu/sw/dcc/SL73/2020-aug/generic/gen-zlib/1.2.11/include -I/dtu/sw/dcc/SL73/2020-aug/generic/openssl/1.1.1/include -I/dtu/sw/dcc/SL73/2020-aug/generic/libssh2/1.8.2/include -I/dtu/sw/dcc/SL73/2020-aug/generic/curl/7.65.1/include -I/dtu/sw/dcc/SL73/2020-aug/XeonE5-2660v3/gnu/9.3.0/netcdf/4.7.4/include -I/dtu/sw/dcc/SL73/2020-aug/XeonE5-2660v3/gnu/9.3.0/flook/0.8.1/include -I/dtu/sw/dcc/SL73/2020-aug/XeonE5-2660v3/gnu/9.3.0/fftw/3.3.8/include -I/dtu/sw/dcc/SL73/2020-aug/XeonE5-2660v3/gnu/9.3.0/parmetis/4.0.3/include -I/dtu/sw/dcc/SL73/2020-aug/XeonE5-2660v3/gnu/9.3.0/scalapack/2.1.0/include -I/dtu/sw/dcc/SL73/2020-aug/XeonE5-2660v3/gnu/9.3.0/lapack/3.9.0/include -I/dtu/sw/dcc/SL73/2020-aug/XeonE5-2660v3/gnu/9.3.0/blis/0.7.0/include -I/dtu/sw/dcc/SL73/2020-aug/XeonE5-2660v3/gnu/9.3.0/scotch/6.0.9/include -I/dtu/sw/dcc/SL73/2020-aug/XeonE5-2660v3/gnu/9.3.0/mumps/5.3.3/include -I/dtu/sw/dcc/SL73/2020-aug/XeonE5-2660v3/gnu/9.3.0/elpa/2020.05.001/include -DSIESTA__ELPA -DMPI -DFC_HAVE_FLUSH -DFC_HAVE_ABORT -DCDF -DCDF4 -DSIESTA__FLOOK  -DNCDF -DNCDF_4 -DNCDF_PARALLEL -DTS_NOCHECKS -DSIESTA__METIS -DSIESTA__MUMPS -DSIESTA__MRRR -I/dtu/sw/dcc/SL73/2020-aug/XeonE5-2660v3/gnu/9.3.0/elpa/2020.05.001/include/elpa
Libraries       : libncdf.a libfdict.a -lnetcdff -lnetcdf -lpnetcdf -lhdf5_hl -lhdf5 -lz  -lzmuumps -lmumps_common -lesmumps -lscotch -lscotcherr -lpord -lparmetis -lmetis -lelpa -lscalapack -llapack -lblis  -L/dtu/sw/dcc/SL73/2020-aug/XeonE5-2660v3/gnu/9.3.0/flook/0.8.1/lib -Wl,-rpath=/dtu/sw/dcc/SL73/2020-aug/XeonE5-2660v3/gnu/9.3.0/flook/0.8.1/lib -lflookall -ldl  -flto -fuse-linker-plugin  -lmetis
PARALLEL version
NetCDF support
NetCDF-4 support
NetCDF-4 MPI-IO support
METIS ordering support
Lua support

* Running on 8 nodes in parallel
>> Start of run:  23-JAN-2021   0:38:57

                           ***********************       
                           *  WELCOME TO SIESTA  *       
                           ***********************       

reinit: Reading from au_100.fdf

reinit: -----------------------------------------------------------------------
reinit: System Name: Au 100 with gold chain
reinit: -----------------------------------------------------------------------
reinit: System Label: au_100
reinit: -----------------------------------------------------------------------

initatom: Reading input for the pseudopotentials and atomic orbitals ----------
Species number:   1 Atomic number:   79 Label: Au

Ground state valence configuration:   6s01  5d10
Reading pseudopotential information in formatted form from Au.psf

Pseudopotential generated from a relativistic atomic calculation

Valence configuration for pseudopotential generation:
6s( 1.00) rc: 2.29
6p( 0.00) rc: 3.14
5d(10.00) rc: 1.20
5f( 0.00) rc: 3.14
For Au, standard SIESTA heuristics set lmxkb to 3
 (one more than the basis l, including polarization orbitals).
Use PS.lmax or PS.KBprojectors blocks to override.
Au: nkbl increased for l=1 due to the presence of a polarization orbital

<basis_specs>
===============================================================================
Au                   Z=  79    Mass=  196.97        Charge= 0.17977+309
Lmxo=2 Lmxkb= 3    BasisType=split      Semic=F
L=0  Nsemic=0  Cnfigmx=6
          i=1  nzeta=1  polorb=1  (6s)
            splnorm:   0.15000    
               vcte:    0.0000    
               rinn:    0.0000    
               qcoe:    0.0000    
               qyuk:    0.0000    
               qwid:   0.10000E-01
                rcs:    0.0000    
            lambdas:    1.0000    
L=1  Nsemic=0  Cnfigmx=6
L=2  Nsemic=0  Cnfigmx=5
          i=1  nzeta=1  polorb=0  (5d)
            splnorm:   0.15000    
               vcte:    0.0000    
               rinn:    0.0000    
               qcoe:    0.0000    
               qyuk:    0.0000    
               qwid:   0.10000E-01
                rcs:    0.0000    
            lambdas:    1.0000    
-------------------------------------------------------------------------------
L=0  Nkbl=1  erefs: 0.17977+309
L=1  Nkbl=2  erefs: 0.17977+309 0.17977+309
L=2  Nkbl=1  erefs: 0.17977+309
L=3  Nkbl=1  erefs: 0.17977+309
===============================================================================
</basis_specs>

atom: Called for Au                    (Z =  79)

read_vps: Pseudopotential generation method:
read_vps: ATM3      Troullier-Martins                       
Valence charge for ps generation:   11.00000

read_vps: Pseudopotential includes a core correction:
read_vps: Pseudo-core for xc-correction

xc_check: Exchange-correlation functional:
xc_check: GGA Perdew, Burke & Ernzerhof 1996
V l=0 = -2*Zval/r beyond r=  2.9833
V l=1 = -2*Zval/r beyond r=  3.1363
V l=2 = -2*Zval/r beyond r=  2.9833
V l=3 = -2*Zval/r beyond r=  3.1363
All V_l potentials equal beyond r=  3.0973
This should be close to max(r_c) in ps generation
All pots = -2*Zval/r beyond r=  3.1363

VLOCAL1: 99.0% of the norm of Vloc inside      4.525 Ry
VLOCAL1: 99.9% of the norm of Vloc inside     10.312 Ry
atom: Maximum radius for 4*pi*r*r*local-pseudopot. charge    3.73611
atom: Maximum radius for r*vlocal+2*Zval:    3.29710
GHOST: No ghost state for L =  0
KBgen: More than one KB projector for l=  1
KBgen: ghost states analysis will be not performed
GHOST: No ghost state for L =  2
GHOST: No ghost state for L =  3

KBgen: Kleinman-Bylander projectors: 
   l= 0   rc=  3.423088   el= -0.421435   Ekb=  5.114239   kbcos=  0.182513
   l= 1   rc=  3.553892   el= -0.058080   Ekb=  1.612319   kbcos=  0.221966
   l= 1   rc=  3.830686   el=  0.001066   Ekb=-27.109983   kbcos= -0.000104
   l= 2   rc=  3.256140   el= -0.508574   Ekb= -6.472599   kbcos= -0.707183
   l= 3   rc=  3.643860   el=  0.003083   Ekb= -1.026026   kbcos= -0.026089

KBgen: Total number of  Kleinman-Bylander projectors:   19
atom: -------------------------------------------------------------------------

atom: SANKEY-TYPE ORBITALS:

SPLIT: Orbitals with angular momentum L= 0

SPLIT: Basis orbitals for state 6s

SPLIT: PAO cut-off radius determined from an
SPLIT: energy shift=  0.005000 Ry

   izeta = 1
                 lambda =    1.000000
                     rc =    7.246712
                 energy =   -0.416422
                kinetic =    0.363232
    potential(screened) =   -0.779654
       potential(ionic) =   -8.332754

SPLIT: Orbitals with angular momentum L= 2

SPLIT: Basis orbitals for state 5d

SPLIT: PAO cut-off radius determined from an
SPLIT: energy shift=  0.005000 Ry

   izeta = 1
                 lambda =    1.000000
                     rc =    5.106662
                 energy =   -0.503595
                kinetic =    4.974612
    potential(screened) =   -5.478207
       potential(ionic) =  -15.919605

POLgen: Perturbative polarization orbital with L=  1

POLgen: Polarization orbital for state 6s

   izeta = 1
                     rc =    7.246712
                 energy =   -0.086468
                kinetic =    0.638528
    potential(screened) =   -0.724996
       potential(ionic) =   -7.799440
atom: Total number of Sankey-type orbitals:  9

atm_pop: Valence configuration (for local Pseudopot. screening):
 6s( 1.00)                                                            
 6p( 0.00)                                                            
 5d(10.00)                                                            
Vna: chval, zval:   11.00000  11.00000

Vna:  Cut-off radius for the neutral-atom potential:   7.246712
comcore: Pseudo-core radius Rcore=  4.027091

atom: _________________________________________________________________________

prinput: Basis input ----------------------------------------------------------

PAO.BasisType split     

%block ChemicalSpeciesLabel
    1   79 Au                      # Species index, atomic number, species label
%endblock ChemicalSpeciesLabel

%block PAO.Basis                 # Define Basis set
Au                    2                    # Species label, number of l-shells
 n=6   0   1 P   1                   # n, l, Nzeta, Polarization, NzetaPol
   7.247   
   1.000   
 n=5   2   1                         # n, l, Nzeta 
   5.107   
   1.000   
%endblock PAO.Basis

prinput: ----------------------------------------------------------------------

Dumping basis to NetCDF file Au.ion.nc
coor:   Atomic-coordinates input format  =     Cartesian coordinates
coor:                                          (in Angstroms)

siesta: WARNING: XV file not found

siesta: Atomic coordinates (Bohr) and species
siesta:      0.00000   0.00000   0.00000  1        1
siesta:      5.44944   0.00000   0.00000  1        2
siesta:     10.89889   0.00000   0.00000  1        3
siesta:      0.00000   5.44944   0.00000  1        4
siesta:      5.44944   5.44944   0.00000  1        5
siesta:     10.89889   5.44944   0.00000  1        6
siesta:      0.00000  10.89889   0.00000  1        7
siesta:      5.44944  10.89889   0.00000  1        8
siesta:     10.89889  10.89889   0.00000  1        9
siesta:      2.72472   2.72472   3.85334  1       10
siesta:      8.17416   2.72472   3.85334  1       11
siesta:     13.62361   2.72472   3.85334  1       12
siesta:      2.72472   8.17416   3.85334  1       13
siesta:      8.17416   8.17416   3.85334  1       14
siesta:     13.62361   8.17416   3.85334  1       15
siesta:      2.72472  13.62361   3.85334  1       16
siesta:      8.17416  13.62361   3.85334  1       17
siesta:     13.62361  13.62361   3.85334  1       18
siesta:      0.00000   0.00000   7.70668  1       19
siesta:      5.44944   0.00000   7.70668  1       20
siesta:     10.89889   0.00000   7.70668  1       21
siesta:      0.00000   5.44944   7.70668  1       22
siesta:      5.44944   5.44944   7.70668  1       23
siesta:     10.89889   5.44944   7.70668  1       24
siesta:      0.00000  10.89889   7.70668  1       25
siesta:      5.44944  10.89889   7.70668  1       26
siesta:     10.89889  10.89889   7.70668  1       27
siesta:      2.72472   2.72472  11.56003  1       28
siesta:      8.17416   2.72472  11.56003  1       29
siesta:     13.62361   2.72472  11.56003  1       30
siesta:      2.72472   8.17416  11.56003  1       31
siesta:      8.17416   8.17416  11.56003  1       32
siesta:     13.62361   8.17416  11.56003  1       33
siesta:      2.72472  13.62361  11.56003  1       34
siesta:      8.17416  13.62361  11.56003  1       35
siesta:     13.62361  13.62361  11.56003  1       36
siesta:      0.00000   0.00000  15.41337  1       37
siesta:      5.44944   0.00000  15.41337  1       38
siesta:     10.89889   0.00000  15.41337  1       39
siesta:      0.00000   5.44944  15.41337  1       40
siesta:      5.44944   5.44944  15.41337  1       41
siesta:     10.89889   5.44944  15.41337  1       42
siesta:      0.00000  10.89889  15.41337  1       43
siesta:      5.44944  10.89889  15.41337  1       44
siesta:     10.89889  10.89889  15.41337  1       45
siesta:      2.72472   2.72472  19.26671  1       46
siesta:      8.17416   2.72472  19.26671  1       47
siesta:     13.62361   2.72472  19.26671  1       48
siesta:      2.72472   8.17416  19.26671  1       49
siesta:      8.17416   8.17416  19.26671  1       50
siesta:     13.62361   8.17416  19.26671  1       51
siesta:      2.72472  13.62361  19.26671  1       52
siesta:      8.17416  13.62361  19.26671  1       53
siesta:     13.62361  13.62361  19.26671  1       54
siesta:      0.00000   0.00000  23.12005  1       55
siesta:      2.72472   2.72472  26.97339  1       56
siesta:      0.00000   0.00000  30.82674  1       57
siesta:      2.72472   2.72472  34.68008  1       58
siesta:      0.00000   0.00000  38.53342  1       59
siesta:      5.44944   0.00000  38.53342  1       60
siesta:     10.89889   0.00000  38.53342  1       61
siesta:      0.00000   5.44944  38.53342  1       62
siesta:      5.44944   5.44944  38.53342  1       63
siesta:     10.89889   5.44944  38.53342  1       64
siesta:      0.00000  10.89889  38.53342  1       65
siesta:      5.44944  10.89889  38.53342  1       66
siesta:     10.89889  10.89889  38.53342  1       67
siesta:      2.72472   2.72472  42.38676  1       68
siesta:      8.17416   2.72472  42.38676  1       69
siesta:     13.62361   2.72472  42.38676  1       70
siesta:      2.72472   8.17416  42.38676  1       71
siesta:      8.17416   8.17416  42.38676  1       72
siesta:     13.62361   8.17416  42.38676  1       73
siesta:      2.72472  13.62361  42.38676  1       74
siesta:      8.17416  13.62361  42.38676  1       75
siesta:     13.62361  13.62361  42.38676  1       76
siesta:      0.00000   0.00000  46.24010  1       77
siesta:      5.44944   0.00000  46.24010  1       78
siesta:     10.89889   0.00000  46.24010  1       79
siesta:      0.00000   5.44944  46.24010  1       80
siesta:      5.44944   5.44944  46.24010  1       81
siesta:     10.89889   5.44944  46.24010  1       82
siesta:      0.00000  10.89889  46.24010  1       83
siesta:      5.44944  10.89889  46.24010  1       84
siesta:     10.89889  10.89889  46.24010  1       85
siesta:      2.72472   2.72472  50.09345  1       86
siesta:      8.17416   2.72472  50.09345  1       87
siesta:     13.62361   2.72472  50.09345  1       88
siesta:      2.72472   8.17416  50.09345  1       89
siesta:      8.17416   8.17416  50.09345  1       90
siesta:     13.62361   8.17416  50.09345  1       91
siesta:      2.72472  13.62361  50.09345  1       92
siesta:      8.17416  13.62361  50.09345  1       93
siesta:     13.62361  13.62361  50.09345  1       94
siesta:      0.00000   0.00000  53.94679  1       95
siesta:      5.44944   0.00000  53.94679  1       96
siesta:     10.89889   0.00000  53.94679  1       97
siesta:      0.00000   5.44944  53.94679  1       98
siesta:      5.44944   5.44944  53.94679  1       99
siesta:     10.89889   5.44944  53.94679  1      100
siesta:      0.00000  10.89889  53.94679  1      101
siesta:      5.44944  10.89889  53.94679  1      102
siesta:     10.89889  10.89889  53.94679  1      103
siesta:      2.72472   2.72472  57.80013  1      104
siesta:      8.17416   2.72472  57.80013  1      105
siesta:     13.62361   2.72472  57.80013  1      106
siesta:      2.72472   8.17416  57.80013  1      107
siesta:      8.17416   8.17416  57.80013  1      108
siesta:     13.62361   8.17416  57.80013  1      109
siesta:      2.72472  13.62361  57.80013  1      110
siesta:      8.17416  13.62361  57.80013  1      111
siesta:     13.62361  13.62361  57.80013  1      112

siesta: System type = bulk      

initatomlists: Number of atoms, orbitals, and projectors:    112  1008  2128

coxmol: Writing XMOL coordinates into file au_100.xyz                                                          

siesta: ******************** Simulation parameters ****************************
siesta:
siesta: The following are some of the parameters of the simulation.
siesta: A complete list of the parameters used, including default values,
siesta: can be found in file out.fdf
siesta:
redata: Spin configuration                          = none
redata: Number of spin components                   = 1
redata: Time-Reversal Symmetry                      = T
redata: Spin spiral                                 = F
redata: Long output                                 =   F
redata: Number of Atomic Species                    =        1
redata: Charge density info will appear in .RHO file
redata: Write Mulliken Pop.                         = Atomic and Orbital charges
redata: Matel table size (NRTAB)                    =     1024
redata: Mesh Cutoff                                 =   300.0000 Ry
redata: Net charge of the system                    =     0.0000 |e|
redata: Min. number of SCF Iter                     =        0
redata: Max. number of SCF Iter                     =      300
redata: SCF convergence failure will abort job
redata: SCF mix quantity                            = Hamiltonian
redata: Mix DM or H after convergence               =   F
redata: Recompute H after scf cycle                 =   F
redata: Mix DM in first SCF step                    =   T
redata: Write Pulay info on disk                    =   F
redata: New DM Occupancy tolerance                  = 0.000000000001
redata: No kicks to SCF
redata: DM Mixing Weight for Kicks                  =     0.5000
redata: Require Harris convergence for SCF          =   F
redata: Harris energy tolerance for SCF             =     0.000100 eV
redata: Require DM convergence for SCF              =   T
redata: DM tolerance for SCF                        =     0.000100
redata: Require EDM convergence for SCF             =   F
redata: EDM tolerance for SCF                       =     0.001000 eV
redata: Require H convergence for SCF               =   T
redata: Hamiltonian tolerance for SCF               =     0.001000 eV
redata: Require (free) Energy convergence for SCF   =   F
redata: (free) Energy tolerance for SCF             =     0.000100 eV
redata: Using Saved Data (generic)                  =   F
redata: Use continuation files for DM               =   T
redata: Neglect nonoverlap interactions             =   F
redata: Method of Calculation                       = Transiesta
redata: Fix the spin of the system                  =   F
redata: Dynamics option                             = Single-point calculation
mix.SCF: Pulay mixing                            = Pulay
mix.SCF:    Variant                              = stable
mix.SCF:    History steps                        = 5
mix.SCF:    Linear mixing weight                 =     0.050000
mix.SCF:    Mixing weight                        =     0.050000
mix.SCF:    SVD condition                        = 0.1000E-07
redata: Save all siesta data in one NC              =   F
redata: ***********************************************************************

%block SCF.Mixers
  Pulay
%endblock SCF.Mixers

%block SCF.Mixer.Pulay
  # Mixing method
  method pulay
  variant stable

  # Mixing options
  weight 0.0500
  weight.linear 0.0500
  history 5
%endblock SCF.Mixer.Pulay

DM_history_depth set to one: no extrapolation allowed by default for geometry relaxation
Size of DM history Fstack: 1
Total number of electrons:  1232.000000
Total ionic charge:  1232.000000

* ProcessorY, Blocksize:    2  24


* Orbital distribution balance (max,min):   144   120

k-point displ. along   1 input, could be:     0.00    0.50
k-point displ. along   2 input, could be:     0.00    0.50
k-point displ. along   3 input, could be:     0.00    0.50
 Kpoints in:            8 . Kpoints trimmed:            8

siesta: k-grid: Number of k-points =     8
siesta: k-grid: Cutoff (effective) =     8.651 Ang
siesta: k-grid: Supercell and displacements
siesta: k-grid:    2   0   0      0.000
siesta: k-grid:    0   2   0      0.000
siesta: k-grid:    0   0   2      0.000

diag: Algorithm                                     = D&C
diag: Parallel over k                               =   F
diag: Use parallel 2D distribution                  =   T
diag: Parallel block-size                           = 24
diag: Parallel distribution                         =     2 x     4
diag: Used triangular part                          = Lower
diag: Absolute tolerance                            =  0.100E-15
diag: Orthogonalization factor                      =  0.100E-05
diag: Memory factor                                 =  1.0000

superc: Internal auxiliary supercell:     5 x     5 x     3  =      75
superc: Number of atoms, orbitals, and projectors:   8400  75600 159600

k-point displ. along   1 input, could be:     0.00    0.50
k-point displ. along   2 input, could be:     0.00    0.50
 Kpoints in:            4 . Kpoints trimmed:            4

transiesta: k-grid: Number of Green function k-points =     4
transiesta: k-grid: Supercell and displacements
transiesta: k-grid:    2   0   0      0.000
transiesta: k-grid:    0   2   0      0.000
transiesta: k-grid:    0   0   1      0.000
Electrode: Left has very few k-points in the semi-infinite direction, at least 20 is recommended.
Electrode: Right has very few k-points in the semi-infinite direction, at least 20 is recommended.

ts: **************************************************************
ts: Voltage                                         =    0.0000 Volts
ts: Save H and S matrices                           =    T
ts: Electronic temperature                          =  299.986869 K
ts: Transport along unit-cell vector                =    A3
ts: Transport along Cartesian vector                =    Z
ts: Fixing Hartree potential at cell boundary       =    -C
ts: Fix Hartree potential fraction                  =    1.0000
ts: Hartree potential offset                        =    0.000000 eV
ts: Solution method                                 =    BTD
ts: BTD pivoting method                             =    atom+Left
ts: BTD creation algorithm                          =    speed
ts: SCF DM tolerance                                = 0.100E-03
ts: SCF Hamiltonian tolerance                       =    0.001000 eV
ts: SCF converge charge                             =    T
ts: SCF charge tolerance                            = 0.123E+01
ts: Initialize DM by                                =    diagon
ts: Will not correct charge fluctuations
ts: TS.SCF mixing options same as SCF
ts:           >> Electrodes << 
ts: >> Left
ts:   Electrode cell pivoting: E1, E2, E3           = A1, A2, A3
ts:   GF file                                       = au_100.TSGFLeft
ts:   Reuse existing GF-file                        =    F
ts:   Electrode TSHS file                           = ./elec_au_100.TSHS
ts:   # atoms used in electrode                     =    4
ts:   Electrode Bloch repeating [E1 x E2 x E3]      = 3 x 3 x 1
ts:   Position in geometry                          = 1 -- 36
ts:   Semi-infinite direction for electrode         = negative wrt. E3
ts:   Chemical shift                                =    0.000000 eV
ts:   Electronic temperature                        =  299.986869 K
ts:   Gamma-only electrode                          =    F
ts:   Bulk H, S in electrode region                 =    T
ts:   Initial DM for electrodes                     = diagon
ts:   Pre-expansion to reduce computation           = H, S, GS
ts:   Cross-terms are not updated
ts:   Manual delta-Ef shift                         =    0.000000 eV
ts:   Electrode self-energy imaginary Eta           =  0.1000E-02 eV
ts:   Electrode self-energy accuracy                =  0.1000E-12 eV
ts:   Electrode inter-layer distance (semi-inf)     =    2.0391 Ang
ts: >> Right
ts:   Electrode cell pivoting: E1, E2, E3           = A1, A2, A3
ts:   GF file                                       = au_100.TSGFRight
ts:   Reuse existing GF-file                        =    F
ts:   Electrode TSHS file                           = ./elec_au_100.TSHS
ts:   # atoms used in electrode                     =    4
ts:   Electrode Bloch repeating [E1 x E2 x E3]      = 3 x 3 x 1
ts:   Position in geometry                          = 77 -- 112
ts:   Semi-infinite direction for electrode         = positive wrt. E3
ts:   Chemical shift                                =    0.000000 eV
ts:   Electronic temperature                        =  299.986869 K
ts:   Gamma-only electrode                          =    F
ts:   Bulk H, S in electrode region                 =    T
ts:   Initial DM for electrodes                     = diagon
ts:   Pre-expansion to reduce computation           = H, S, GS
ts:   Cross-terms are not updated
ts:   Manual delta-Ef shift                         =    0.000000 eV
ts:   Electrode self-energy imaginary Eta           =  0.1000E-02 eV
ts:   Electrode self-energy accuracy                =  0.1000E-12 eV
ts:   Electrode inter-layer distance (semi-inf)     =    2.0391 Ang
ts:  ----------------- Contour ----------------- 
ts:            >> Residual contour << 
ts: Pole chemical potential                         =    0.0000 eV
ts:    Chemical potential temperature               =  299.9869 K
ts:    Number of poles                              =   16
ts:    Top energy point                             =    2.5988 eV
ts:          >> Equilibrium contour << 
ts: Contour name                                    =    TS.Contour.c-Left
ts:   circle contour E_min                          =  -40.0000 eV
ts:   circle contour E_max                          =   -0.2585 eV
ts:   circle contour points                         =   30
ts:   circle contour method                         =    Gauss-Legendre
ts: Contour name                                    =    TS.Contour.t-Left
ts:   tail contour E_min                            =   -0.2585 eV
ts:   tail contour E_max                            =     Infinity
ts:   tail contour points                           =   10
ts:   tail contour method                           =    Gauss-Fermi (0kT)
ts: **************************************************************

************************ Begin: TS CHECKS AND WARNINGS ************************
Electrode Left will not update cross-terms or local region.
Electrode Left is using Bloch unfolding using the repeat scheme! Please use the tiling scheme (it is orders of magnitudes faster!).
Electrode Right will not update cross-terms or local region.
Electrode Right is using Bloch unfolding using the repeat scheme! Please use the tiling scheme (it is orders of magnitudes faster!).
************************ End: TS CHECKS AND WARNINGS **************************

                  ****************************************
                   TRANSIESTA REPORTED IMPORTANT WARNINGS
                  ****************************************

>>> TranSiesta block information for FDF-file START <<<

%block TS.ChemPots
  Left
%endblock TS.ChemPots

%block TS.ChemPot.Left
  mu  V/2
  contour.eq
   begin
    c-Left
    t-Left
   end
%endblock TS.ChemPot.Left
%block TS.Contour.c-Left
  part circle
     from -40.00000 eV + V/2 to -10. kT + V/2
      points 30
        method g-legendre
%endblock TS.Contour.c-Left
%block TS.Contour.t-Left
  part tail
     from prev to + inf
      points 10
        method g-fermi
%endblock TS.Contour.t-Left

>>> TranSiesta block information for FDF-file END <<<


transiesta: Regions of atoms:
   ## (36): Elec.Left
     [ 1 -- 36 ]
   ## (36): Elec.Right
     [ 77 -- 112 ]
   -- (40): Device
     [ 37 -- 76 ]

  <sparsity:./elec_au_100.TSHS
    nrows_g=36 nrows=36 sparsity=46.6327 nnzs=60436, refcount: 3>
  <sparsity:(TM [--,--, 0] of: ./elec_au_100.TSHS)
    nrows_g=36 nrows=36 sparsity=26.8025 nnzs=34736, refcount: 3>
  <sparsity:(TM [--,--,-1] of: ./elec_au_100.TSHS)
    nrows_g=36 nrows=36 sparsity=9.9151 nnzs=12850, refcount: 3>
 Left principal cell is perfect!

Calculating all surface Green functions for: Left
 Fermi level shift in electrode (chemical potential) :        0.00000  eV
 Atoms available    / used atoms   :      4 /      4
 Orbitals available / used orbitals:     36 /     36
 Total self-energy calculations: 2016
 Bloch expansion k-points in A_1 direction [b_1]: 3
 Bloch expansion k-points in A_2 direction [b_2]: 3
 Saving surface Green functions in: au_100.TSGFLeft
 Estimated file size:    371.619 MB
 Lopez Sancho, Lopez Sancho & Rubio recursive surface self-energy calculation...
 Lopez Sancho, Lopez Sancho & Rubio: Mean/std iterations:     3.9841 /     1.1104
 Lopez Sancho, Lopez Sancho & Rubio: Min/Max iterations :          3 /          9
Done creating 'au_100.TSGFLeft'.

  <sparsity:./elec_au_100.TSHS
    nrows_g=36 nrows=36 sparsity=46.6327 nnzs=60436, refcount: 3>
  <sparsity:(TM [--,--, 0] of: ./elec_au_100.TSHS)
    nrows_g=36 nrows=36 sparsity=26.8025 nnzs=34736, refcount: 3>
  <sparsity:(TM [--,--, 1] of: ./elec_au_100.TSHS)
    nrows_g=36 nrows=36 sparsity=9.9151 nnzs=12850, refcount: 3>
 Right principal cell is perfect!

Calculating all surface Green functions for: Right
 Fermi level shift in electrode (chemical potential) :        0.00000  eV
 Atoms available    / used atoms   :      4 /      4
 Orbitals available / used orbitals:     36 /     36
 Total self-energy calculations: 2016
 Bloch expansion k-points in A_1 direction [b_1]: 3
 Bloch expansion k-points in A_2 direction [b_2]: 3
 Saving surface Green functions in: au_100.TSGFRight
 Estimated file size:    371.619 MB
 Lopez Sancho, Lopez Sancho & Rubio recursive surface self-energy calculation...
 Lopez Sancho, Lopez Sancho & Rubio: Mean/std iterations:     3.9841 /     1.1104
 Lopez Sancho, Lopez Sancho & Rubio: Min/Max iterations :          3 /          9
Done creating 'au_100.TSGFRight'.


                     ====================================
                        Single-point calculation
                     ====================================

superc: Internal auxiliary supercell:     5 x     5 x     3  =      75
superc: Number of atoms, orbitals, and projectors:   8400  75600 159600

outcell: Unit cell vectors (Ang):
        8.651160    0.000000    0.000000
        0.000000    8.651160    0.000000
        0.000000    0.000000   32.625600

outcell: Cell vector modules (Ang)   :    8.651160    8.651160   32.625600
outcell: Cell angles (23,13,12) (deg):     90.0000     90.0000     90.0000
outcell: Cell volume (Ang**3)        :   2441.7837
<dSpData1D:S at geom step 0
  <sparsity:sparsity for geom step 0
    nrows_g=1008 nrows=144 sparsity=.2100 nnzs=213382, refcount: 7>
  <dData1D:(new from dSpData1D) n=213382, refcount: 1>
refcount: 1>
new_DM -- step:     1
Initializing Density Matrix...

Attempting to read DM, EDM from TSDE file... Failed...
Attempting to read DM from file... Failed...
DM filled with atomic data:
<dSpData2D:DM initialized from atoms
  <sparsity:sparsity for geom step 0
    nrows_g=1008 nrows=144 sparsity=.2100 nnzs=213382, refcount: 8>
  <dData2D:DM n=213382 m=1, refcount: 1>
refcount: 1>

transiesta: Initialization run using siesta

No. of atoms with KB's overlaping orbs in proc 0. Max # of overlaps:     400     315
New grid distribution:   1
           1       1:   48    1:   24    1:   45
           2       1:   48    1:   24   46:   90
           3       1:   48    1:   24   91:  135
           4       1:   48    1:   24  136:  180
           5       1:   48   25:   48    1:   45
           6       1:   48   25:   48   46:   90
           7       1:   48   25:   48   91:  135
           8       1:   48   25:   48  136:  180

InitMesh: MESH =    96 x    96 x   360 =     3317760
InitMesh: (bp) =    48 x    48 x   180 =      414720
InitMesh: Mesh cutoff (required, used) =   300.000   336.504 Ry
ExtMesh (bp) on 0 =   136 x   112 x   133 =     2025856
New grid distribution:   2
           1       1:   48    1:   24    1:   32
           2       1:   48    1:   23   33:  114
           3       1:   48    1:   24  115:  148
           4       1:   48    1:   24  149:  180
           5       1:   48   25:   48    1:   32
           6       1:   48   24:   48   33:  114
           7       1:   48   25:   48  115:  148
           8       1:   48   25:   48  149:  180
New grid distribution:   3
           1       1:   48   25:   48  137:  180
           2       1:   48    1:   23   45:   92
           3       1:   48    1:   24    1:   44
           4       1:   48    1:   24  137:  180
           5       1:   48   25:   48    1:   44
           6       1:   48   24:   48   45:   92
           7       1:   48   25:   48   93:  136
           8       1:   48    1:   24   93:  136
Setting up quadratic distribution...
ExtMesh (bp) on 0 =   136 x   112 x   120 =     1827840
PhiOnMesh: Number of (b)points on node 0 =                36864
PhiOnMesh: nlist on node 0 =              3132414
ts-Vha: -0.23435E-05 eV

stepf: Fermi-Dirac step function
ts-Vha: -0.33057E+02 eV

siesta: Program's energy decomposition (eV):
siesta: Ebs     =     19107.133393
siesta: Eions   =    106428.788183
siesta: Ena     =       385.361141
siesta: Ekin    =     71408.644366
siesta: Enl     =    -46019.430725
siesta: Eso     =         0.000000
siesta: Edftu   =         0.000000
siesta: DEna    =       167.541342
siesta: DUscf   =       282.473293
siesta: DUext   =         0.000000
siesta: Exc     =    -80118.634328
siesta: eta*DQ  =         0.000000
siesta: Emadel  =         0.000000
siesta: Emeta   =         0.000000
siesta: Emolmec =         0.000000
siesta: Ekinion =         0.000000
siesta: Eharris =   -159818.219481
siesta: Etot    =   -160322.833095
siesta: FreeEng =   -160322.927286

        iscf     Eharris(eV)        E_KS(eV)     FreeEng(eV)     dDmax    Ef(eV) dHmax(eV)
   scf:    1  -159818.219481  -160322.833095  -160322.927286  0.762098 -1.964111 75.379140
timer: Routine,Calls,Time,% = IterSCF        1      20.568  57.87
ts-Vha:  0.89487E+02 eV
   scf:    2  -156843.148259  -159520.881837  -159521.001856  0.898333 -0.887920170.113695
ts-Vha:  0.73598E+01 eV
   scf:    3  -160668.737610  -160496.870592  -160497.003156  0.321167 -1.825533 16.533210
ts-Vha: -0.15067E+01 eV
   scf:    4  -160512.816855  -160513.053933  -160513.220330  0.204380 -2.037466  3.783646
ts-Vha:  0.10261E+01 eV
   scf:    5  -160499.237914  -160511.476535  -160511.590436  0.188365 -1.925037  6.509901
ts-Vha: -0.46035E+00 eV
   scf:    6  -160522.025033  -160518.999676  -160519.138296  0.180014 -2.045416  3.822711
ts-Vha:  0.96650E-01 eV
   scf:    7  -160520.090574  -160519.819096  -160519.955726  0.005801 -2.048595  3.375802
ts-Vha:  0.74511E-01 eV
   scf:    8  -160524.762227  -160522.354951  -160522.492239  0.035661 -2.107986  3.188989
ts-Vha: -0.30463E+01 eV
   scf:    9  -160529.176020  -160526.659948  -160526.801823  0.036793 -2.292207  4.319509
ts-Vha: -0.34409E+00 eV
   scf:   10  -160530.058917  -160528.896685  -160529.032518  0.038777 -2.339017  1.786149
ts-Vha: -0.69485E+00 eV
   scf:   11  -160531.036415  -160530.085677  -160530.223051  0.025438 -2.452974  0.551630
ts-Vha: -0.98270E+00 eV
   scf:   12  -160530.358354  -160530.246996  -160530.385653  0.012727 -2.483889  0.599750
ts-Vha: -0.88846E+00 eV
   scf:   13  -160530.231706  -160530.241965  -160530.380551  0.001705 -2.476500  0.396142
ts-Vha: -0.83011E+00 eV
   scf:   14  -160530.319153  -160530.283874  -160530.422768  0.003435 -2.484868  0.220618
ts-Vha: -0.83117E+00 eV
   scf:   15  -160530.320961  -160530.303627  -160530.442528  0.002419 -2.492586  0.201333
ts-Vha: -0.76748E+00 eV
   scf:   16  -160530.324588  -160530.315458  -160530.454112  0.003010 -2.498234  0.070473
ts-Vha: -0.75893E+00 eV
   scf:   17  -160530.317127  -160530.316320  -160530.454962  0.000287 -2.499296  0.087338
ts-Vha: -0.76770E+00 eV
   scf:   18  -160530.316575  -160530.316471  -160530.455140  0.000349 -2.499999  0.068992
ts-Vha: -0.76772E+00 eV
   scf:   19  -160530.317929  -160530.317225  -160530.455874  0.000258 -2.501157  0.073446
ts-Vha: -0.76790E+00 eV
   scf:   20  -160530.320471  -160530.319037  -160530.457604  0.001006 -2.504986  0.046926
ts-Vha: -0.76714E+00 eV
   scf:   21  -160530.320327  -160530.319864  -160530.458300  0.001182 -2.508747  0.044671
ts-Vha: -0.76829E+00 eV
   scf:   22  -160530.321416  -160530.320670  -160530.459030  0.000810 -2.509519  0.036224
ts-Vha: -0.81025E+00 eV
   scf:   23  -160530.322881  -160530.322128  -160530.460345  0.002737 -2.511806  0.064285
ts-Vha: -0.78098E+00 eV
   scf:   24  -160530.321483  -160530.321901  -160530.460181  0.001249 -2.510207  0.015377
ts-Vha: -0.78489E+00 eV
   scf:   25  -160530.322120  -160530.322038  -160530.460325  0.000269 -2.509516  0.025067
ts-Vha: -0.78687E+00 eV
   scf:   26  -160530.322486  -160530.322284  -160530.460567  0.000566 -2.509458  0.018807
ts-Vha: -0.78504E+00 eV
   scf:   27  -160530.322444  -160530.322373  -160530.460662  0.000312 -2.508776  0.011004
ts-Vha: -0.78114E+00 eV
   scf:   28  -160530.322562  -160530.322480  -160530.460744  0.000403 -2.508752  0.010434
ts-Vha: -0.78487E+00 eV
   scf:   29  -160530.322559  -160530.322525  -160530.460761  0.000403 -2.509454  0.003698
ts-Vha: -0.78535E+00 eV
   scf:   30  -160530.322534  -160530.322530  -160530.460764  0.000052 -2.509634  0.003087
ts-Vha: -0.78566E+00 eV
   scf:   31  -160530.322528  -160530.322531  -160530.460771  0.000105 -2.510084  0.003097
ts-Vha: -0.78546E+00 eV
   scf:   32  -160530.322531  -160530.322531  -160530.460772  0.000008 -2.510124  0.001987
ts-Vha: -0.78559E+00 eV
   scf:   33  -160530.322534  -160530.322533  -160530.460772  0.000032 -2.510321  0.001326
ts-Vha: -0.78539E+00 eV
   scf:   34  -160530.322532  -160530.322532  -160530.460772  0.000011 -2.510371  0.001460
ts-Vha: -0.78545E+00 eV
   scf:   35  -160530.322532  -160530.322532  -160530.460772  0.000002 -2.510397  0.001331
ts-Vha: -0.78567E+00 eV
   scf:   36  -160530.322521  -160530.322527  -160530.460774  0.000078 -2.510495  0.000716

SCF Convergence by DM+H criterion
max |DM_out - DM_in|         :     0.0000777327
max |H_out - H_in|      (eV) :     0.0007157542
SCF cycle converged after 36 iterations

                     ***************************
                     *  WELCOME TO TRANSIESTA  *
                     ***************************

ts-Vha: -0.78567E+00 eV

transiesta: created H and S sparsity pattern:
  <sparsity:(M of: G ((UC of: T T T sparsity for geom step 0)))
    nrows_g=1008 nrows=1008 sparsity=.2331 nnzs=236872, refcount: 1>

transiesta: created update sparsity pattern:
  <sparsity:G ((UC of: (M of: T T T sparsity for geom step 0)))
    nrows_g=1008 nrows=1008 sparsity=.0688 nnzs=69916, refcount: 1>

transiesta: Determining an optimal tri-matrix using: atom+Left
transiesta: Established a near-optimal partition for the tri-diagonal matrix.
BTD partitions (5): 
  [ 81, 324, 108, 252, 243 ]
transiesta: Matrix elements in % of full matrix:  53.65115 %

transiesta: mem of electrodes (static):                     3.20MB
transiesta: mem of global update arrays (static):           9.36MB
transiesta: mem of tri-diagonal matrices:                  16.64MB
transiesta: Total memory usage:                            29.20MB

transiesta: Charge distribution, target =   1232.00000
Total charge                  [Q]  :   1232.00000
Device                        [D]  :    436.15011
Left                          [E1] :    392.16177
Left                 / device [C1] :      3.85824
Right                         [E2] :    392.16179
Right                / device [C2] :      3.85823
Other                         [O]  :      3.80987
Excess charge                [dQ]  :  8.86757E-12

ts-q:         D        E1        C1        E2        C2        dQ
ts-q:   436.096   392.162     3.858   392.162     3.858 -.545E-01
ts-Vha: -0.58960E+00 eV

siesta: Program's energy decomposition (eV):
siesta: Ebs     =     -8548.364838
siesta: Eions   =    106428.788183
siesta: Ena     =       385.361141
siesta: Ekin    =     73177.680574
siesta: Enl     =    -47365.729344
siesta: Eso     =         0.000000
siesta: Edftu   =         0.000000
siesta: DEna    =       105.869074
siesta: DUscf   =        41.447638
siesta: DUext   =         0.000000
siesta: Exc     =    -80446.238501
siesta: eta*DQ  =         0.000000
siesta: Emadel  =         0.000000
siesta: Emeta   =         0.000000
siesta: Emolmec =         0.000000
siesta: Ekinion =         0.000000
siesta: Eharris =   -160530.491750
siesta: Etot    =   -160530.397602
siesta: FreeEng =   -160530.397602
ts: E-dN      =         0.000000
ts: Band Stru =     -2984.961238
ts: Kinetic   =     26127.213394
ts: Ion-elec  =   -511821.885964
ts: Eharris   =   -177182.884973
ts: Etot      =   -177182.790824
ts: FreeEng   =   -177182.790824

        iscf     Eharris(eV)        E_KS(eV)     FreeEng(eV)     dDmax    Ef(eV) dHmax(eV)
ts-scf:    1  -177182.884973  -177182.790824  -177182.790824  0.018158 -2.510495  0.410166
timer: Routine,Calls,Time,% = TS             1       6.445   1.01
ts-q:         D        E1        C1        E2        C2        dQ
ts-q:   436.347   392.162     3.858   392.162     3.858 0.196E+00
ts-Vha: -0.11104E+01 eV
ts-scf:    2  -177184.217022  -177183.663290  -177183.663290  0.007091 -2.510495  0.583604
ts-q:         D        E1        C1        E2        C2        dQ
ts-q:   436.196   392.162     3.858   392.162     3.858 0.456E-01
ts-Vha: -0.82534E+00 eV
ts-scf:    3  -177182.734671  -177183.142944  -177183.142944  0.003849 -2.510495  0.121239
ts-q:         D        E1        C1        E2        C2        dQ
ts-q:   436.163   392.162     3.858   392.162     3.858 0.124E-01
ts-Vha: -0.79097E+00 eV
ts-scf:    4  -177182.927140  -177183.022347  -177183.022347  0.001645 -2.510495  0.052195
ts-q:         D        E1        C1        E2        C2        dQ
ts-q:   436.159   392.162     3.858   392.162     3.858 0.856E-02
ts-Vha: -0.78310E+00 eV
ts-scf:    5  -177183.009322  -177183.014393  -177183.014393  0.001329 -2.510495  0.028105
ts-q:         D        E1        C1        E2        C2        dQ
ts-q:   436.157   392.162     3.858   392.162     3.858 0.675E-02
ts-Vha: -0.78240E+00 eV
ts-scf:    6  -177183.016335  -177183.014704  -177183.014704  0.001283 -2.510495  0.012223
ts-q:         D        E1        C1        E2        C2        dQ
ts-q:   436.159   392.162     3.858   392.162     3.858 0.867E-02
ts-Vha: -0.78626E+00 eV
ts-scf:    7  -177183.032580  -177183.024399  -177183.024399  0.000063 -2.510495  0.009562
ts-q:         D        E1        C1        E2        C2        dQ
ts-q:   436.158   392.162     3.858   392.162     3.858 0.815E-02
ts-Vha: -0.78561E+00 eV
ts-scf:    8  -177183.026466  -177183.025228  -177183.025228  0.000060 -2.510495  0.007847
ts-q:         D        E1        C1        E2        C2        dQ
ts-q:   436.158   392.162     3.858   392.162     3.858 0.749E-02
ts-Vha: -0.78493E+00 eV
ts-scf:    9  -177183.049896  -177183.037314  -177183.037314  0.000285 -2.510495  0.004146
ts-q:         D        E1        C1        E2        C2        dQ
ts-q:   436.158   392.162     3.858   392.162     3.858 0.785E-02
ts-Vha: -0.78538E+00 eV
ts-scf:   10  -177183.048978  -177183.043286  -177183.043286  0.000092 -2.510495  0.002564
ts-q:         D        E1        C1        E2        C2        dQ
ts-q:   436.158   392.162     3.858   392.162     3.858 0.783E-02
ts-Vha: -0.78535E+00 eV
ts-scf:   11  -177183.048152  -177183.045713  -177183.045713  0.000062 -2.510495  0.002094
ts-q:         D        E1        C1        E2        C2        dQ
ts-q:   436.158   392.162     3.858   392.162     3.858 0.775E-02
ts-Vha: -0.78533E+00 eV
ts-scf:   12  -177183.046833  -177183.046241  -177183.046241  0.000026 -2.510495  0.001505
ts-q:         D        E1        C1        E2        C2        dQ
ts-q:   436.158   392.162     3.858   392.162     3.858 0.761E-02
ts-Vha: -0.78511E+00 eV
ts-scf:   13  -177183.046039  -177183.046084  -177183.046084  0.000009 -2.510495  0.000831

SCF Convergence by DM+H+dQ criterion
max |DM_out - DM_in|         :     0.0000091280
max |H_out - H_in|      (eV) :     0.0008307141
     Q(TS) - Q(dev)          :     0.0076084974
SCF cycle converged after 13 iterations

Using DM_out to compute the final energy and forces
No. of atoms with KB's overlaping orbs in proc 0. Max # of overlaps:     400     315
ts-Vha: -0.78511E+00 eV

siesta: E_KS(eV) =          -160530.6529

siesta: E_KS - E_eggbox =   -160530.6529

siesta: Atomic forces (eV/Ang):
----------------------------------------
   Tot   -0.001383   -0.001383    0.003523
----------------------------------------
   Max    1.371988
   Res    0.314738    sqrt( Sum f_i^2 / 3N )
----------------------------------------
   Max    1.371988    constrained

ts: Atomic forces (eV/Ang):
----------------------------------------
   Tot   -0.001363   -0.001363    0.001702
----------------------------------------
   Max    1.371988
   Res    0.380955    sqrt( Sum f_i^2 / 3N )
----------------------------------------
   Max    1.371988    constrained

Stress tensor Voigt[x,y,z,yz,xz,xy] (kbar):     -146.95     -146.95     -149.36        0.55        0.55        1.06
(Free)E + p*V (eV/cell)  -160305.4739
Target enthalpy (eV/cell)  -160530.6529

mulliken: Atomic and Orbital Populations:

Species: Au                  
Atom  Qatom  Qorb
               6s      5dxy    5dyz    5dz2    5dxz    5dx2-y2 6Ppy    6Ppz    
               6Ppx    
   1 10.998   0.976   1.932   1.890   1.939   1.890   1.894   0.158   0.161
              0.158
   2 10.999   0.978   1.932   1.890   1.939   1.890   1.894   0.158   0.161
              0.158
   3 10.999   0.978   1.931   1.889   1.939   1.890   1.894   0.158   0.162
              0.158
   4 10.999   0.978   1.932   1.890   1.939   1.890   1.894   0.158   0.161
              0.158
   5 10.999   0.977   1.932   1.889   1.939   1.889   1.894   0.158   0.162
              0.158
   6 10.999   0.977   1.932   1.890   1.938   1.891   1.894   0.158   0.161
              0.158
   7 10.999   0.978   1.931   1.890   1.939   1.889   1.894   0.158   0.162
              0.158
   8 10.999   0.977   1.932   1.891   1.938   1.890   1.894   0.158   0.161
              0.158
   9 10.999   0.976   1.932   1.890   1.938   1.890   1.894   0.159   0.162
              0.159
  10 11.004   0.989   1.934   1.886   1.939   1.886   1.894   0.159   0.159
              0.159
  11 11.001   0.984   1.935   1.887   1.939   1.886   1.894   0.159   0.160
              0.158
  12 11.003   0.986   1.935   1.886   1.939   1.886   1.894   0.159   0.161
              0.158
  13 11.001   0.984   1.935   1.886   1.939   1.887   1.894   0.158   0.160
              0.159
  14 11.001   0.985   1.934   1.888   1.939   1.888   1.894   0.159   0.157
              0.159
  15 11.001   0.983   1.934   1.887   1.939   1.887   1.894   0.159   0.160
              0.159
  16 11.003   0.986   1.935   1.886   1.939   1.886   1.894   0.158   0.161
              0.159
  17 11.001   0.983   1.934   1.887   1.939   1.887   1.894   0.159   0.160
              0.159
  18 11.004   0.987   1.934   1.886   1.939   1.886   1.894   0.158   0.161
              0.158
  19 10.997   0.973   1.932   1.890   1.938   1.890   1.894   0.159   0.164
              0.159
  20 11.000   0.981   1.931   1.889   1.939   1.890   1.893   0.158   0.160
              0.158
  21 11.001   0.982   1.931   1.888   1.939   1.890   1.893   0.158   0.160
              0.159
  22 11.000   0.981   1.931   1.890   1.939   1.889   1.893   0.158   0.160
              0.158
  23 11.000   0.981   1.932   1.889   1.940   1.889   1.894   0.159   0.159
              0.159
  24 11.000   0.981   1.931   1.889   1.940   1.890   1.894   0.158   0.158
              0.159
  25 11.001   0.982   1.931   1.890   1.939   1.888   1.893   0.159   0.160
              0.158
  26 11.000   0.981   1.931   1.890   1.940   1.889   1.894   0.159   0.158
              0.158
  27 10.999   0.979   1.932   1.889   1.939   1.889   1.894   0.159   0.159
              0.159
  28 10.998   0.977   1.935   1.891   1.938   1.891   1.889   0.159   0.160
              0.159
  29 10.999   0.975   1.934   1.890   1.937   1.891   1.889   0.159   0.164
              0.159
  30 10.998   0.977   1.935   1.890   1.938   1.891   1.889   0.159   0.161
              0.159
  31 10.999   0.975   1.934   1.891   1.937   1.890   1.889   0.159   0.164
              0.159
  32 11.001   0.975   1.933   1.890   1.936   1.890   1.890   0.161   0.165
              0.161
  33 10.999   0.975   1.934   1.891   1.937   1.890   1.889   0.159   0.163
              0.160
  34 10.998   0.977   1.935   1.891   1.938   1.890   1.889   0.159   0.161
              0.159
  35 10.999   0.975   1.934   1.890   1.937   1.891   1.889   0.160   0.163
              0.159
  36 10.998   0.975   1.934   1.890   1.937   1.890   1.889   0.159   0.162
              0.159
  37 10.959   0.949   1.937   1.902   1.940   1.902   1.878   0.152   0.148
              0.152
  38 10.972   0.958   1.937   1.902   1.927   1.900   1.881   0.153   0.161
              0.153
  39 10.972   0.961   1.937   1.902   1.926   1.901   1.881   0.152   0.159
              0.152
  40 10.972   0.958   1.937   1.900   1.927   1.902   1.881   0.153   0.161
              0.153
  41 10.974   0.958   1.938   1.901   1.926   1.901   1.878   0.153   0.165
              0.153
  42 10.975   0.960   1.938   1.901   1.926   1.901   1.878   0.153   0.165
              0.153
  43 10.972   0.961   1.937   1.901   1.926   1.902   1.881   0.152   0.159
              0.152
  44 10.975   0.960   1.938   1.901   1.926   1.901   1.878   0.153   0.165
              0.153
  45 10.978   0.965   1.937   1.900   1.926   1.900   1.878   0.154   0.164
              0.154
  46 11.013   1.006   1.949   1.914   1.935   1.914   1.868   0.143   0.142
              0.143
  47 11.027   1.039   1.948   1.921   1.947   1.928   1.861   0.136   0.111
              0.137
  48 11.014   1.013   1.949   1.912   1.938   1.916   1.867   0.144   0.132
              0.141
  49 11.027   1.039   1.948   1.928   1.947   1.921   1.861   0.137   0.111
              0.136
  50 11.032   1.046   1.948   1.922   1.948   1.922   1.861   0.137   0.109
              0.137
  51 11.025   1.039   1.949   1.927   1.948   1.921   1.861   0.136   0.109
              0.136
  52 11.014   1.013   1.949   1.916   1.938   1.912   1.867   0.141   0.132
              0.144
  53 11.025   1.039   1.949   1.921   1.948   1.927   1.861   0.136   0.109
              0.136
  54 11.031   1.031   1.948   1.911   1.936   1.911   1.868   0.144   0.136
              0.144
  55 11.044   1.094   1.927   1.899   1.961   1.899   1.976   0.085   0.119
              0.085
  56 11.008   1.076   1.976   1.938   1.965   1.938   1.986   0.025   0.077
              0.025
  57 11.008   1.076   1.976   1.938   1.965   1.938   1.986   0.025   0.077
              0.025
  58 11.044   1.094   1.927   1.899   1.961   1.899   1.976   0.085   0.119
              0.085
  59 11.013   1.006   1.949   1.914   1.935   1.914   1.868   0.143   0.142
              0.143
  60 11.014   1.013   1.949   1.912   1.938   1.916   1.867   0.144   0.132
              0.141
  61 11.027   1.039   1.948   1.921   1.947   1.928   1.861   0.136   0.111
              0.137
  62 11.014   1.013   1.949   1.916   1.938   1.912   1.867   0.141   0.132
              0.144
  63 11.031   1.031   1.948   1.911   1.936   1.911   1.868   0.144   0.136
              0.144
  64 11.025   1.039   1.949   1.921   1.948   1.927   1.861   0.136   0.109
              0.136
  65 11.027   1.039   1.948   1.928   1.947   1.921   1.861   0.137   0.111
              0.136
  66 11.025   1.039   1.949   1.927   1.948   1.921   1.861   0.136   0.109
              0.136
  67 11.032   1.046   1.948   1.922   1.948   1.922   1.861   0.137   0.109
              0.137
  68 10.959   0.949   1.937   1.902   1.940   1.902   1.878   0.152   0.148
              0.152
  69 10.972   0.961   1.937   1.902   1.926   1.901   1.881   0.152   0.159
              0.152
  70 10.972   0.958   1.937   1.902   1.927   1.900   1.881   0.153   0.161
              0.153
  71 10.972   0.961   1.937   1.901   1.926   1.902   1.881   0.152   0.159
              0.152
  72 10.978   0.965   1.937   1.900   1.926   1.900   1.878   0.154   0.164
              0.154
  73 10.975   0.960   1.938   1.901   1.926   1.901   1.878   0.153   0.165
              0.153
  74 10.972   0.958   1.937   1.900   1.927   1.902   1.881   0.153   0.161
              0.153
  75 10.975   0.960   1.938   1.901   1.926   1.901   1.878   0.153   0.165
              0.153
  76 10.974   0.958   1.938   1.901   1.926   1.901   1.878   0.153   0.165
              0.153
  77 10.998   0.977   1.935   1.891   1.938   1.891   1.889   0.159   0.160
              0.159
  78 10.998   0.977   1.935   1.890   1.938   1.891   1.889   0.159   0.161
              0.159
  79 10.999   0.975   1.934   1.890   1.937   1.891   1.889   0.159   0.164
              0.159
  80 10.998   0.977   1.935   1.891   1.938   1.890   1.889   0.159   0.161
              0.159
  81 10.998   0.975   1.934   1.890   1.937   1.890   1.889   0.159   0.162
              0.159
  82 10.999   0.975   1.934   1.890   1.937   1.891   1.889   0.160   0.163
              0.159
  83 10.999   0.975   1.934   1.891   1.937   1.890   1.889   0.159   0.164
              0.159
  84 10.999   0.975   1.934   1.891   1.937   1.890   1.889   0.159   0.163
              0.160
  85 11.001   0.975   1.933   1.890   1.936   1.890   1.890   0.161   0.165
              0.161
  86 10.997   0.973   1.932   1.890   1.938   1.890   1.894   0.159   0.164
              0.159
  87 11.001   0.982   1.931   1.888   1.939   1.890   1.893   0.158   0.160
              0.159
  88 11.000   0.981   1.931   1.889   1.939   1.890   1.893   0.158   0.160
              0.158
  89 11.001   0.982   1.931   1.890   1.939   1.888   1.893   0.159   0.160
              0.158
  90 10.999   0.979   1.932   1.889   1.939   1.889   1.894   0.159   0.159
              0.159
  91 11.000   0.981   1.931   1.890   1.940   1.889   1.894   0.159   0.158
              0.158
  92 11.000   0.981   1.931   1.890   1.939   1.889   1.893   0.158   0.160
              0.158
  93 11.000   0.981   1.931   1.889   1.940   1.890   1.894   0.158   0.158
              0.159
  94 11.000   0.981   1.932   1.889   1.940   1.889   1.894   0.159   0.159
              0.159
  95 11.004   0.989   1.934   1.886   1.939   1.886   1.894   0.159   0.159
              0.159
  96 11.003   0.986   1.935   1.886   1.939   1.886   1.894   0.159   0.161
              0.158
  97 11.001   0.984   1.935   1.887   1.939   1.886   1.894   0.159   0.160
              0.158
  98 11.003   0.986   1.935   1.886   1.939   1.886   1.894   0.158   0.161
              0.159
  99 11.004   0.987   1.934   1.886   1.939   1.886   1.894   0.158   0.161
              0.158
 100 11.001   0.983   1.934   1.887   1.939   1.887   1.894   0.159   0.160
              0.159
 101 11.001   0.984   1.935   1.886   1.939   1.887   1.894   0.158   0.160
              0.159
 102 11.001   0.983   1.934   1.887   1.939   1.887   1.894   0.159   0.160
              0.159
 103 11.001   0.985   1.934   1.888   1.939   1.888   1.894   0.159   0.157
              0.159
 104 10.998   0.976   1.932   1.890   1.939   1.890   1.894   0.158   0.161
              0.158
 105 10.999   0.978   1.931   1.889   1.939   1.890   1.894   0.158   0.162
              0.158
 106 10.999   0.978   1.932   1.890   1.939   1.890   1.894   0.158   0.161
              0.158
 107 10.999   0.978   1.931   1.890   1.939   1.889   1.894   0.158   0.162
              0.158
 108 10.999   0.976   1.932   1.890   1.938   1.890   1.894   0.159   0.162
              0.159
 109 10.999   0.977   1.932   1.891   1.938   1.890   1.894   0.158   0.161
              0.158
 110 10.999   0.978   1.932   1.890   1.939   1.890   1.894   0.158   0.161
              0.158
 111 10.999   0.977   1.932   1.890   1.938   1.891   1.894   0.158   0.161
              0.158
 112 10.999   0.977   1.932   1.889   1.939   1.889   1.894   0.158   0.162
              0.158

mulliken: Qtot =     1232.008

transiesta: Charge distribution, target =   1232.00000
Total charge                  [Q]  :   1232.00761
Device                        [D]  :    436.15772
Left                          [E1] :    392.16177
Left                 / device [C1] :      3.85824
Right                         [E2] :    392.16179
Right                / device [C2] :      3.85823
Other                         [O]  :      3.80987
Excess charge                [dQ]  :  7.60850E-03


coxmol: Writing XMOL coordinates into file au_100.xyz                                                          

siesta: Program's energy decomposition (eV):
siesta: Ebs     =     -8372.803051
siesta: Eions   =    106428.788183
siesta: Ena     =       385.361141
siesta: Ekin    =     73179.798858
siesta: Enl     =    -47366.848798
siesta: Eso     =         0.000000
siesta: Edftu   =         0.000000
siesta: DEna    =       105.616623
siesta: DUscf   =        41.420683
siesta: DUext   =         0.000000
siesta: Exc     =    -80447.213184
siesta: eta*DQ  =         0.000000
siesta: Emadel  =         0.000000
siesta: Emeta   =         0.000000
siesta: Emolmec =         0.000000
siesta: Ekinion =         0.000000
siesta: Eharris =   -160530.652816
siesta: Etot    =   -160530.652861
siesta: FreeEng =   -160530.652861
ts: E-dN      =         0.000000
ts: Band Stru =     -2849.274833
ts: Kinetic   =     26129.331679
ts: Ion-elec  =   -511999.264917
ts: Eharris   =   -177183.046039
ts: Etot      =   -177183.046084
ts: FreeEng   =   -177183.046084

siesta: Final energy (eV):
siesta:  Band Struct. =   -8372.803051
siesta:       Kinetic =   73179.798858
siesta:       Hartree =  243575.904242
siesta:       Edftu   =       0.000000
siesta:       Eso     =       0.000000
siesta:    Ext. field =       0.000000
siesta:   Exch.-corr. =  -80447.213184
siesta:  Ion-electron = -542397.338874
siesta:       Ion-ion =  145558.196097
siesta:       Ekinion =       0.000000
siesta:         Total = -160530.652861
ts:         E-dN  =       0.000000
ts:     Band Stru =   -2849.274833
ts:       Kinetic =   26129.331679
ts:      Ion-elec = -511999.264917
ts:         Total = -177183.046084
siesta:         Fermi =      -2.510495

siesta: Atomic forces (eV/Ang):
siesta:      1   -0.006187   -0.006187   -0.017132
siesta:      2    0.006104   -0.000575   -0.026262
siesta:      3   -0.000465    0.001337   -0.026072
siesta:      4   -0.000575    0.006104   -0.026262
siesta:      5    0.000545    0.000545   -0.001523
siesta:      6   -0.000617   -0.011569   -0.020069
siesta:      7    0.001337   -0.000465   -0.026072
siesta:      8   -0.011569   -0.000617   -0.020069
siesta:      9    0.010769    0.010769   -0.004441
siesta:     10    0.001819    0.001819    0.031548
siesta:     11   -0.004672   -0.006138    0.048315
siesta:     12    0.003091   -0.002944    0.035532
siesta:     13   -0.006138   -0.004672    0.048315
siesta:     14   -0.005238   -0.005238    0.035288
siesta:     15    0.011202   -0.003247    0.056620
siesta:     16   -0.002944    0.003091    0.035532
siesta:     17   -0.003247    0.011202    0.056620
siesta:     18    0.006035    0.006035    0.046291
siesta:     19   -0.011085   -0.011085   -0.066459
siesta:     20    0.011521   -0.000311   -0.078455
siesta:     21    0.001339    0.004076   -0.089918
siesta:     22   -0.000311    0.011521   -0.078455
siesta:     23    0.003716    0.003716   -0.101293
siesta:     24   -0.003816   -0.008115   -0.088946
siesta:     25    0.004076    0.001339   -0.089918
siesta:     26   -0.008115   -0.003816   -0.088946
siesta:     27    0.003821    0.003821   -0.093712
siesta:     28    0.008241    0.008241    0.031090
siesta:     29   -0.003058   -0.001059   -0.014007
siesta:     30   -0.005976    0.000188    0.018284
siesta:     31   -0.001059   -0.003058   -0.014007
siesta:     32   -0.008938   -0.008938    0.047302
siesta:     33    0.010378   -0.001718   -0.008712
siesta:     34    0.000188   -0.005976    0.018284
siesta:     35   -0.001718    0.010378   -0.008712
siesta:     36   -0.000780   -0.000780    0.033124
siesta:     37   -0.007098   -0.007098   -0.319550
siesta:     38    0.005729   -0.009558   -0.044312
siesta:     39   -0.003236   -0.011185   -0.040425
siesta:     40   -0.009558    0.005729   -0.044312
siesta:     41   -0.065926   -0.065926    0.078665
siesta:     42    0.073605   -0.053085    0.069829
siesta:     43   -0.011185   -0.003236   -0.040425
siesta:     44   -0.053085    0.073605    0.069829
siesta:     45    0.064198    0.064198    0.048921
siesta:     46    0.297794    0.297794    1.336696
siesta:     47   -0.014557    0.020523    1.180746
siesta:     48   -0.267132    0.234287    1.265284
siesta:     49    0.020523   -0.014557    1.180746
siesta:     50    0.000749    0.000749    1.198907
siesta:     51   -0.018231   -0.007300    1.159570
siesta:     52    0.234287   -0.267132    1.265284
siesta:     53   -0.007300   -0.018231    1.159570
siesta:     54   -0.181096   -0.181096    1.370451
siesta:     55    0.347741    0.347741    0.440009
siesta:     56   -0.907463   -0.907463    0.016599
siesta:     57    0.906866    0.906866   -0.016717
siesta:     58   -0.348377   -0.348377   -0.436631
siesta:     59   -0.298126   -0.298126   -1.340018
siesta:     60    0.267274   -0.234414   -1.266946
siesta:     61    0.014541   -0.020490   -1.182704
siesta:     62   -0.234414    0.267274   -1.266946
siesta:     63    0.181293    0.181293   -1.371988
siesta:     64    0.007306    0.018218   -1.161607
siesta:     65   -0.020490    0.014541   -1.182704
siesta:     66    0.018218    0.007306   -1.161607
siesta:     67   -0.000772   -0.000772   -1.200873
siesta:     68    0.007083    0.007083    0.320525
siesta:     69    0.003001    0.011189    0.042392
siesta:     70   -0.005474    0.009509    0.046262
siesta:     71    0.011189    0.003001    0.042392
siesta:     72   -0.064194   -0.064194   -0.047018
siesta:     73    0.053079   -0.073557   -0.067871
siesta:     74    0.009509   -0.005474    0.046262
siesta:     75   -0.073557    0.053079   -0.067871
siesta:     76    0.065923    0.065923   -0.076708
siesta:     77   -0.008311   -0.008311   -0.030889
siesta:     78    0.006037   -0.000184   -0.018044
siesta:     79    0.003054    0.001057    0.014527
siesta:     80   -0.000184    0.006037   -0.018044
siesta:     81    0.000796    0.000796   -0.032936
siesta:     82    0.001710   -0.010432    0.009243
siesta:     83    0.001057    0.003054    0.014527
siesta:     84   -0.010432    0.001710    0.009243
siesta:     85    0.008987    0.008987   -0.046836
siesta:     86    0.011084    0.011084    0.066131
siesta:     87   -0.001265   -0.004048    0.089794
siesta:     88   -0.011587    0.000352    0.078320
siesta:     89   -0.004048   -0.001265    0.089794
siesta:     90   -0.003756   -0.003756    0.093574
siesta:     91    0.008023    0.003818    0.088781
siesta:     92    0.000352   -0.011587    0.078320
siesta:     93    0.003818    0.008023    0.088781
siesta:     94   -0.003773   -0.003773    0.101119
siesta:     95   -0.001856   -0.001856   -0.031706
siesta:     96   -0.003077    0.002925   -0.035693
siesta:     97    0.004682    0.006124   -0.048500
siesta:     98    0.002925   -0.003077   -0.035693
siesta:     99   -0.006027   -0.006027   -0.046442
siesta:    100    0.003264   -0.011218   -0.056780
siesta:    101    0.006124    0.004682   -0.048500
siesta:    102   -0.011218    0.003264   -0.056780
siesta:    103    0.005269    0.005269   -0.035512
siesta:    104    0.006160    0.006160    0.017308
siesta:    105    0.000487   -0.001338    0.026203
siesta:    106   -0.006101    0.000603    0.026448
siesta:    107   -0.001338    0.000487    0.026203
siesta:    108   -0.010712   -0.010712    0.004642
siesta:    109    0.011518    0.000605    0.020193
siesta:    110    0.000603   -0.006101    0.026448
siesta:    111    0.000605    0.011518    0.020193
siesta:    112   -0.000564   -0.000564    0.001681
siesta: ----------------------------------------
siesta:    Tot   -0.001383   -0.001383    0.003523

ts: Atomic forces (eV/Ang):
ts:      1    0.000000    0.000000    0.000000
ts:      2    0.000000    0.000000    0.000000
ts:      3    0.000000    0.000000    0.000000
ts:      4    0.000000    0.000000    0.000000
ts:      5    0.000000    0.000000    0.000000
ts:      6    0.000000    0.000000    0.000000
ts:      7    0.000000    0.000000    0.000000
ts:      8    0.000000    0.000000    0.000000
ts:      9    0.000000    0.000000    0.000000
ts:     10    0.000000    0.000000    0.000000
ts:     11    0.000000    0.000000    0.000000
ts:     12    0.000000    0.000000    0.000000
ts:     13    0.000000    0.000000    0.000000
ts:     14    0.000000    0.000000    0.000000
ts:     15    0.000000    0.000000    0.000000
ts:     16    0.000000    0.000000    0.000000
ts:     17    0.000000    0.000000    0.000000
ts:     18    0.000000    0.000000    0.000000
ts:     19    0.000000    0.000000    0.000000
ts:     20    0.000000    0.000000    0.000000
ts:     21    0.000000    0.000000    0.000000
ts:     22    0.000000    0.000000    0.000000
ts:     23    0.000000    0.000000    0.000000
ts:     24    0.000000    0.000000    0.000000
ts:     25    0.000000    0.000000    0.000000
ts:     26    0.000000    0.000000    0.000000
ts:     27    0.000000    0.000000    0.000000
ts:     28    0.000000    0.000000    0.000000
ts:     29    0.000000    0.000000    0.000000
ts:     30    0.000000    0.000000    0.000000
ts:     31    0.000000    0.000000    0.000000
ts:     32    0.000000    0.000000    0.000000
ts:     33    0.000000    0.000000    0.000000
ts:     34    0.000000    0.000000    0.000000
ts:     35    0.000000    0.000000    0.000000
ts:     36    0.000000    0.000000    0.000000
ts:     37   -0.007098   -0.007098   -0.319550
ts:     38    0.005729   -0.009558   -0.044312
ts:     39   -0.003236   -0.011185   -0.040425
ts:     40   -0.009558    0.005729   -0.044312
ts:     41   -0.065926   -0.065926    0.078665
ts:     42    0.073605   -0.053085    0.069829
ts:     43   -0.011185   -0.003236   -0.040425
ts:     44   -0.053085    0.073605    0.069829
ts:     45    0.064198    0.064198    0.048921
ts:     46    0.297794    0.297794    1.336696
ts:     47   -0.014557    0.020523    1.180746
ts:     48   -0.267132    0.234287    1.265284
ts:     49    0.020523   -0.014557    1.180746
ts:     50    0.000749    0.000749    1.198907
ts:     51   -0.018231   -0.007300    1.159570
ts:     52    0.234287   -0.267132    1.265284
ts:     53   -0.007300   -0.018231    1.159570
ts:     54   -0.181096   -0.181096    1.370451
ts:     55    0.347741    0.347741    0.440009
ts:     56   -0.907463   -0.907463    0.016599
ts:     57    0.906866    0.906866   -0.016717
ts:     58   -0.348377   -0.348377   -0.436631
ts:     59   -0.298126   -0.298126   -1.340018
ts:     60    0.267274   -0.234414   -1.266946
ts:     61    0.014541   -0.020490   -1.182704
ts:     62   -0.234414    0.267274   -1.266946
ts:     63    0.181293    0.181293   -1.371988
ts:     64    0.007306    0.018218   -1.161607
ts:     65   -0.020490    0.014541   -1.182704
ts:     66    0.018218    0.007306   -1.161607
ts:     67   -0.000772   -0.000772   -1.200873
ts:     68    0.007083    0.007083    0.320525
ts:     69    0.003001    0.011189    0.042392
ts:     70   -0.005474    0.009509    0.046262
ts:     71    0.011189    0.003001    0.042392
ts:     72   -0.064194   -0.064194   -0.047018
ts:     73    0.053079   -0.073557   -0.067871
ts:     74    0.009509   -0.005474    0.046262
ts:     75   -0.073557    0.053079   -0.067871
ts:     76    0.065923    0.065923   -0.076708
ts:     77    0.000000    0.000000    0.000000
ts:     78    0.000000    0.000000    0.000000
ts:     79    0.000000    0.000000    0.000000
ts:     80    0.000000    0.000000    0.000000
ts:     81    0.000000    0.000000    0.000000
ts:     82    0.000000    0.000000    0.000000
ts:     83    0.000000    0.000000    0.000000
ts:     84    0.000000    0.000000    0.000000
ts:     85    0.000000    0.000000    0.000000
ts:     86    0.000000    0.000000    0.000000
ts:     87    0.000000    0.000000    0.000000
ts:     88    0.000000    0.000000    0.000000
ts:     89    0.000000    0.000000    0.000000
ts:     90    0.000000    0.000000    0.000000
ts:     91    0.000000    0.000000    0.000000
ts:     92    0.000000    0.000000    0.000000
ts:     93    0.000000    0.000000    0.000000
ts:     94    0.000000    0.000000    0.000000
ts:     95    0.000000    0.000000    0.000000
ts:     96    0.000000    0.000000    0.000000
ts:     97    0.000000    0.000000    0.000000
ts:     98    0.000000    0.000000    0.000000
ts:     99    0.000000    0.000000    0.000000
ts:    100    0.000000    0.000000    0.000000
ts:    101    0.000000    0.000000    0.000000
ts:    102    0.000000    0.000000    0.000000
ts:    103    0.000000    0.000000    0.000000
ts:    104    0.000000    0.000000    0.000000
ts:    105    0.000000    0.000000    0.000000
ts:    106    0.000000    0.000000    0.000000
ts:    107    0.000000    0.000000    0.000000
ts:    108    0.000000    0.000000    0.000000
ts:    109    0.000000    0.000000    0.000000
ts:    110    0.000000    0.000000    0.000000
ts:    111    0.000000    0.000000    0.000000
ts:    112    0.000000    0.000000    0.000000
ts: ----------------------------------------
ts:    Tot   -0.001363   -0.001363    0.001702

siesta: Stress tensor (static) (eV/Ang**3):
siesta:    -0.091717    0.000663    0.000345
siesta:     0.000663   -0.091717    0.000345
siesta:     0.000343    0.000343   -0.093224

siesta: Cell volume =       2441.783730 Ang**3

siesta: Pressure (static):
siesta:                Solid            Molecule  Units
siesta:           0.00100438          0.00116324  Ry/Bohr**3
siesta:           0.09221904          0.10680499  eV/Ang**3
siesta:         147.75279532        171.12231228  kBar
(Free)E+ p_basis*V_orbitals  =     -160453.045415
(Free)Eharris+ p_basis*V_orbitals  =     -160453.045371
ts-Vha: -0.78511E+00 eV

dhscf: Vacuum level (max, mean) =    2.207112    2.108155 eV

cite: Please see "au_100.bib" for an exhaustive BiBTeX file.
cite: Please clearly indicate Siesta version in published work: v4.1-b4-351
cite: This calculation has made use of the following articles
cite: which are encouraged to be cited in a published work.
        Primary SIESTA paper
          DOI: www.doi.org/10.1088/0953-8984/14/11/302
        Primary TranSiesta paper
          DOI: www.doi.org/10.1103/PhysRevB.65.165401
        TranSiesta N-electrode
          DOI: www.doi.org/10.1016/j.cpc.2016.09.022

>> End of run:  23-JAN-2021   0:53:00
Job completed
[1611359580.978144] [n-62-21-35:8796 :0]          mpool.c:42   UCX  WARN  object 0x41a7e40 was not returned to mpool ucp_requests
[1611359580.978270] [n-62-21-35:8792 :0]          mpool.c:42   UCX  WARN  object 0x38c2540 was not returned to mpool ucp_requests
[1611359580.978884] [n-62-21-35:8798 :0]          mpool.c:42   UCX  WARN  object 0x3ec1700 was not returned to mpool ucp_requests
[1611359580.980728] [n-62-21-35:8789 :0]          mpool.c:42   UCX  WARN  object 0x36e4540 was not returned to mpool ucp_requests
