Siesta Version  : v4.1-b4-351
Architecture    : x86_64-linux-n-62-26-19
Compiler version: GNU Fortran (GCC) 9.3.0
Compiler flags  : mpifort -m64 -fPIC -O3 -march=native -ftree-vectorize -fexpensive-optimizatioons -funroll-loops -fprefetch-loop-arrays -fno-second-underscore  -flto
PP flags        : -I/dtu/sw/dcc/SL73/2020-aug/generic/build-tools/1.0/include -I/dtu/sw/dcc/SL773/2020-aug/generic/gcc/9.3.0/include -I/dtu/sw/dcc/SL73/2020-aug/generic/gcc/9.3.0/include -I/dtu/sw/dcc/SL73/2020-aug/XeonE5-2660v3/gnu/9.3.0/zlib/1.2.11/include -I/dtu/sw/dcc/SL73/2020-aug/generic/numactl/2.0.12/include -I/dtu/sw/dcc/SL73/2020-aug/XeonE5-2660v3/gnu/9.3.0/libxml2/2.9.10/include -I/dtu/sw/dcc/SL73/2020-aug/XeonE5-2660v3/gnu/9.3.0/hwloc/2.2.0/include -I/dtu/sw/dcc/SL73/2020-aug/XeonE5-2660v3/gnu/9.3.0/knem/1.1.4/include -I/dtu/sw/dcc/SL73/2020-aug/XeonE5-2660v3/gnu/9.3.0/ucx/1.8.1/include -I/dtu/sw/dcc/SL73/2020-aug/XeonE5-2660v3/gnu/9.3.0/openmpi/4.0.4/include -I/dtu/sw/dcc/SL73/2020-aug/XeonE5-2660v3/gnu/9.3.0/szip/2.1.1/include -I/dtu/sw/dcc/SL73/2020-aug/XeonE5-2660v3/gnu/9.3.0/hdf5/1.12.0/include -I/dtu/sw/dcc/SL73/2020-aug/XeonE5-2660v3/gnu/9.3.0/pnetcdf/1.12.1/include -I/dtu/sw/dcc/SL73/2020-aug/generic/gen-zlib/1.2.11/include -I/dtu/sw/dcc/SL73/2020-aug/generic/openssl/1.1.1/include -I/dtu/sw/dcc/SL73/2020-aug/generic/libssh2/1.8.2/include -I/dtu/sw/dcc/SL73/2020-aug/generic/curl/7.65.1/include -I/dtu/sw/dcc/SL73/2020-aug/XeonE5-2660v3/gnu/9.3.0/netcdf/4.7.4/include -I/dtu/sw/dcc/SL73/2020-aug/XeonE5-2660v3/gnu/9.3.0/flook/0.8.1/include -I/dtu/sw/dcc/SL73/2020-aug/XeonE5-2660v3/gnu/9.3.0/fftw/3.3.8/include -I/dtu/sw/dcc/SL73/2020-aug/XeonE5-2660v3/gnu/9.3.0/parmetis/4.0.3/include -I/dtu/sw/dcc/SL73/2020-aug/XeonE5-2660v3/gnu/9.3.0/scalapack/2.1.0/include -I/dtu/sw/dcc/SL73/2020-aug/XeonE5-2660v3/gnu/9.3.0/lapack/3.9.0/include -I/dtu/sw/dcc/SL73/2020-aug/XeonE5-2660v3/gnu/9.3.0/blis/0.7.0/include -I/dtu/sw/dcc/SL73/2020-aug/XeonE5-2660v3/gnu/9.3.0/scotch/6.0.9/include -I/dtu/sw/dcc/SL73/2020-aug/XeonE5-2660v3/gnu/9.3.0/mumps/5.3.3/include -I/dtu/sw/dcc/SL73/2020-aug/XeonE5-2660v3/gnu/9.3.0/elpa/2020.05.001/include -DSIESTA__ELPA -DMPI -DFC_HAVE_FLUSH -DFC_HAVE_ABORT -DCDF -DCDF4 -DSIESTA__FLOOK  -DNCDF -DNCDF_4 -DNCDF_PARALLEL -DTS_NOCHECKS -DSIESTA__METIS -DSIESTA__MUMPS -DSIESTA__MRRR -I/dtu/sw/dcc/SL73/2020-aug/XeonE5-2660v3/gnu/9.3.0/elpa/2020.05.001/include/elpa
Libraries       : libncdf.a libfdict.a -lnetcdff -lnetcdf -lpnetcdf -lhdf5_hl -lhdf5 -lz  -lzmuumps -lmumps_common -lesmumps -lscotch -lscotcherr -lpord -lparmetis -lmetis -lelpa -lscalapack -llapack -lblis  -L/dtu/sw/dcc/SL73/2020-aug/XeonE5-2660v3/gnu/9.3.0/flook/0.8.1/lib -Wl,-rpath=/dtu/sw/dcc/SL73/2020-aug/XeonE5-2660v3/gnu/9.3.0/flook/0.8.1/lib -lflookall -ldl  -flto -fuse-linker-plugin  -lmetis
PARALLEL version
NetCDF support
NetCDF-4 support
NetCDF-4 MPI-IO support
METIS ordering support
Lua support

* Running on 8 nodes in parallel
>> Start of run:  23-JAN-2021   0:54:26

                           ***********************       
                           *  WELCOME TO SIESTA  *       
                           ***********************       

reinit: Reading from au_100.fdf

reinit: -----------------------------------------------------------------------
reinit: System Name: Au 100 with gold chain
reinit: -----------------------------------------------------------------------
reinit: System Label: au_100
reinit: -----------------------------------------------------------------------

initatom: Reading input for the pseudopotentials and atomic orbitals ----------
Species number:   1 Atomic number:   79 Label: Au

Ground state valence configuration:   6s01  5d10
Reading pseudopotential information in formatted form from Au.psf

Pseudopotential generated from a relativistic atomic calculation

Valence configuration for pseudopotential generation:
6s( 1.00) rc: 2.29
6p( 0.00) rc: 3.14
5d(10.00) rc: 1.20
5f( 0.00) rc: 3.14
For Au, standard SIESTA heuristics set lmxkb to 3
 (one more than the basis l, including polarization orbitals).
Use PS.lmax or PS.KBprojectors blocks to override.
Au: nkbl increased for l=1 due to the presence of a polarization orbital

<basis_specs>
===============================================================================
Au                   Z=  79    Mass=  196.97        Charge= 0.17977+309
Lmxo=2 Lmxkb= 3    BasisType=split      Semic=F
L=0  Nsemic=0  Cnfigmx=6
          i=1  nzeta=1  polorb=1  (6s)
            splnorm:   0.15000    
               vcte:    0.0000    
               rinn:    0.0000    
               qcoe:    0.0000    
               qyuk:    0.0000    
               qwid:   0.10000E-01
                rcs:    0.0000    
            lambdas:    1.0000    
L=1  Nsemic=0  Cnfigmx=6
L=2  Nsemic=0  Cnfigmx=5
          i=1  nzeta=1  polorb=0  (5d)
            splnorm:   0.15000    
               vcte:    0.0000    
               rinn:    0.0000    
               qcoe:    0.0000    
               qyuk:    0.0000    
               qwid:   0.10000E-01
                rcs:    0.0000    
            lambdas:    1.0000    
-------------------------------------------------------------------------------
L=0  Nkbl=1  erefs: 0.17977+309
L=1  Nkbl=2  erefs: 0.17977+309 0.17977+309
L=2  Nkbl=1  erefs: 0.17977+309
L=3  Nkbl=1  erefs: 0.17977+309
===============================================================================
</basis_specs>

atom: Called for Au                    (Z =  79)

read_vps: Pseudopotential generation method:
read_vps: ATM3      Troullier-Martins                       
Valence charge for ps generation:   11.00000

read_vps: Pseudopotential includes a core correction:
read_vps: Pseudo-core for xc-correction

xc_check: Exchange-correlation functional:
xc_check: GGA Perdew, Burke & Ernzerhof 1996
V l=0 = -2*Zval/r beyond r=  2.9833
V l=1 = -2*Zval/r beyond r=  3.1363
V l=2 = -2*Zval/r beyond r=  2.9833
V l=3 = -2*Zval/r beyond r=  3.1363
All V_l potentials equal beyond r=  3.0973
This should be close to max(r_c) in ps generation
All pots = -2*Zval/r beyond r=  3.1363

VLOCAL1: 99.0% of the norm of Vloc inside      4.525 Ry
VLOCAL1: 99.9% of the norm of Vloc inside     10.312 Ry
atom: Maximum radius for 4*pi*r*r*local-pseudopot. charge    3.73611
atom: Maximum radius for r*vlocal+2*Zval:    3.29710
GHOST: No ghost state for L =  0
KBgen: More than one KB projector for l=  1
KBgen: ghost states analysis will be not performed
GHOST: No ghost state for L =  2
GHOST: No ghost state for L =  3

KBgen: Kleinman-Bylander projectors: 
   l= 0   rc=  3.423088   el= -0.421435   Ekb=  5.114239   kbcos=  0.182513
   l= 1   rc=  3.553892   el= -0.058080   Ekb=  1.612319   kbcos=  0.221966
   l= 1   rc=  3.830686   el=  0.001066   Ekb=-27.109983   kbcos= -0.000104
   l= 2   rc=  3.256140   el= -0.508574   Ekb= -6.472599   kbcos= -0.707183
   l= 3   rc=  3.643860   el=  0.003083   Ekb= -1.026026   kbcos= -0.026089

KBgen: Total number of  Kleinman-Bylander projectors:   19
atom: -------------------------------------------------------------------------

atom: SANKEY-TYPE ORBITALS:

SPLIT: Orbitals with angular momentum L= 0

SPLIT: Basis orbitals for state 6s

SPLIT: PAO cut-off radius determined from an
SPLIT: energy shift=  0.005000 Ry

   izeta = 1
                 lambda =    1.000000
                     rc =    7.246712
                 energy =   -0.416422
                kinetic =    0.363232
    potential(screened) =   -0.779654
       potential(ionic) =   -8.332754

SPLIT: Orbitals with angular momentum L= 2

SPLIT: Basis orbitals for state 5d

SPLIT: PAO cut-off radius determined from an
SPLIT: energy shift=  0.005000 Ry

   izeta = 1
                 lambda =    1.000000
                     rc =    5.106662
                 energy =   -0.503595
                kinetic =    4.974612
    potential(screened) =   -5.478207
       potential(ionic) =  -15.919605

POLgen: Perturbative polarization orbital with L=  1

POLgen: Polarization orbital for state 6s

   izeta = 1
                     rc =    7.246712
                 energy =   -0.086468
                kinetic =    0.638528
    potential(screened) =   -0.724996
       potential(ionic) =   -7.799440
atom: Total number of Sankey-type orbitals:  9

atm_pop: Valence configuration (for local Pseudopot. screening):
 6s( 1.00)                                                            
 6p( 0.00)                                                            
 5d(10.00)                                                            
Vna: chval, zval:   11.00000  11.00000

Vna:  Cut-off radius for the neutral-atom potential:   7.246712
comcore: Pseudo-core radius Rcore=  4.027091

atom: _________________________________________________________________________

prinput: Basis input ----------------------------------------------------------

PAO.BasisType split     

%block ChemicalSpeciesLabel
    1   79 Au                      # Species index, atomic number, species label
%endblock ChemicalSpeciesLabel

%block PAO.Basis                 # Define Basis set
Au                    2                    # Species label, number of l-shells
 n=6   0   1 P   1                   # n, l, Nzeta, Polarization, NzetaPol
   7.247   
   1.000   
 n=5   2   1                         # n, l, Nzeta 
   5.107   
   1.000   
%endblock PAO.Basis

prinput: ----------------------------------------------------------------------

Dumping basis to NetCDF file Au.ion.nc
coor:   Atomic-coordinates input format  =     Cartesian coordinates
coor:                                          (in Angstroms)

siesta: WARNING: XV file not found

siesta: Atomic coordinates (Bohr) and species
siesta:      0.00000   0.00000   0.00000  1        1
siesta:      5.44944   0.00000   0.00000  1        2
siesta:     10.89889   0.00000   0.00000  1        3
siesta:      0.00000   5.44944   0.00000  1        4
siesta:      5.44944   5.44944   0.00000  1        5
siesta:     10.89889   5.44944   0.00000  1        6
siesta:      0.00000  10.89889   0.00000  1        7
siesta:      5.44944  10.89889   0.00000  1        8
siesta:     10.89889  10.89889   0.00000  1        9
siesta:      2.72472   2.72472   3.85334  1       10
siesta:      8.17416   2.72472   3.85334  1       11
siesta:     13.62361   2.72472   3.85334  1       12
siesta:      2.72472   8.17416   3.85334  1       13
siesta:      8.17416   8.17416   3.85334  1       14
siesta:     13.62361   8.17416   3.85334  1       15
siesta:      2.72472  13.62361   3.85334  1       16
siesta:      8.17416  13.62361   3.85334  1       17
siesta:     13.62361  13.62361   3.85334  1       18
siesta:      0.00000   0.00000   7.70668  1       19
siesta:      5.44944   0.00000   7.70668  1       20
siesta:     10.89889   0.00000   7.70668  1       21
siesta:      0.00000   5.44944   7.70668  1       22
siesta:      5.44944   5.44944   7.70668  1       23
siesta:     10.89889   5.44944   7.70668  1       24
siesta:      0.00000  10.89889   7.70668  1       25
siesta:      5.44944  10.89889   7.70668  1       26
siesta:     10.89889  10.89889   7.70668  1       27
siesta:      2.72472   2.72472  11.56003  1       28
siesta:      8.17416   2.72472  11.56003  1       29
siesta:     13.62361   2.72472  11.56003  1       30
siesta:      2.72472   8.17416  11.56003  1       31
siesta:      8.17416   8.17416  11.56003  1       32
siesta:     13.62361   8.17416  11.56003  1       33
siesta:      2.72472  13.62361  11.56003  1       34
siesta:      8.17416  13.62361  11.56003  1       35
siesta:     13.62361  13.62361  11.56003  1       36
siesta:      0.00000   0.00000  15.41337  1       37
siesta:      5.44944   0.00000  15.41337  1       38
siesta:     10.89889   0.00000  15.41337  1       39
siesta:      0.00000   5.44944  15.41337  1       40
siesta:      5.44944   5.44944  15.41337  1       41
siesta:     10.89889   5.44944  15.41337  1       42
siesta:      0.00000  10.89889  15.41337  1       43
siesta:      5.44944  10.89889  15.41337  1       44
siesta:     10.89889  10.89889  15.41337  1       45
siesta:      2.72472   2.72472  19.26671  1       46
siesta:      8.17416   2.72472  19.26671  1       47
siesta:     13.62361   2.72472  19.26671  1       48
siesta:      2.72472   8.17416  19.26671  1       49
siesta:      8.17416   8.17416  19.26671  1       50
siesta:     13.62361   8.17416  19.26671  1       51
siesta:      2.72472  13.62361  19.26671  1       52
siesta:      8.17416  13.62361  19.26671  1       53
siesta:     13.62361  13.62361  19.26671  1       54
siesta:      0.00000   0.00000  23.12005  1       55
siesta:      2.72472   2.72472  26.97339  1       56
siesta:      0.00000   0.00000  30.82674  1       57
siesta:      2.72472   2.72472  34.68008  1       58
siesta:      0.00000   0.00000  38.53342  1       59
siesta:      5.44944   0.00000  38.53342  1       60
siesta:     10.89889   0.00000  38.53342  1       61
siesta:      0.00000   5.44944  38.53342  1       62
siesta:      5.44944   5.44944  38.53342  1       63
siesta:     10.89889   5.44944  38.53342  1       64
siesta:      0.00000  10.89889  38.53342  1       65
siesta:      5.44944  10.89889  38.53342  1       66
siesta:     10.89889  10.89889  38.53342  1       67
siesta:      2.72472   2.72472  42.38676  1       68
siesta:      8.17416   2.72472  42.38676  1       69
siesta:     13.62361   2.72472  42.38676  1       70
siesta:      2.72472   8.17416  42.38676  1       71
siesta:      8.17416   8.17416  42.38676  1       72
siesta:     13.62361   8.17416  42.38676  1       73
siesta:      2.72472  13.62361  42.38676  1       74
siesta:      8.17416  13.62361  42.38676  1       75
siesta:     13.62361  13.62361  42.38676  1       76
siesta:      0.00000   0.00000  46.24010  1       77
siesta:      5.44944   0.00000  46.24010  1       78
siesta:     10.89889   0.00000  46.24010  1       79
siesta:      0.00000   5.44944  46.24010  1       80
siesta:      5.44944   5.44944  46.24010  1       81
siesta:     10.89889   5.44944  46.24010  1       82
siesta:      0.00000  10.89889  46.24010  1       83
siesta:      5.44944  10.89889  46.24010  1       84
siesta:     10.89889  10.89889  46.24010  1       85
siesta:      2.72472   2.72472  50.09345  1       86
siesta:      8.17416   2.72472  50.09345  1       87
siesta:     13.62361   2.72472  50.09345  1       88
siesta:      2.72472   8.17416  50.09345  1       89
siesta:      8.17416   8.17416  50.09345  1       90
siesta:     13.62361   8.17416  50.09345  1       91
siesta:      2.72472  13.62361  50.09345  1       92
siesta:      8.17416  13.62361  50.09345  1       93
siesta:     13.62361  13.62361  50.09345  1       94
siesta:      0.00000   0.00000  53.94679  1       95
siesta:      5.44944   0.00000  53.94679  1       96
siesta:     10.89889   0.00000  53.94679  1       97
siesta:      0.00000   5.44944  53.94679  1       98
siesta:      5.44944   5.44944  53.94679  1       99
siesta:     10.89889   5.44944  53.94679  1      100
siesta:      0.00000  10.89889  53.94679  1      101
siesta:      5.44944  10.89889  53.94679  1      102
siesta:     10.89889  10.89889  53.94679  1      103
siesta:      2.72472   2.72472  57.80013  1      104
siesta:      8.17416   2.72472  57.80013  1      105
siesta:     13.62361   2.72472  57.80013  1      106
siesta:      2.72472   8.17416  57.80013  1      107
siesta:      8.17416   8.17416  57.80013  1      108
siesta:     13.62361   8.17416  57.80013  1      109
siesta:      2.72472  13.62361  57.80013  1      110
siesta:      8.17416  13.62361  57.80013  1      111
siesta:     13.62361  13.62361  57.80013  1      112

siesta: System type = bulk      

initatomlists: Number of atoms, orbitals, and projectors:    112  1008  2128

coxmol: Writing XMOL coordinates into file au_100.xyz                                                          

siesta: ******************** Simulation parameters ****************************
siesta:
siesta: The following are some of the parameters of the simulation.
siesta: A complete list of the parameters used, including default values,
siesta: can be found in file out.fdf
siesta:
redata: Spin configuration                          = none
redata: Number of spin components                   = 1
redata: Time-Reversal Symmetry                      = T
redata: Spin spiral                                 = F
redata: Long output                                 =   F
redata: Number of Atomic Species                    =        1
redata: Charge density info will appear in .RHO file
redata: Write Mulliken Pop.                         = Atomic and Orbital charges
redata: Matel table size (NRTAB)                    =     1024
redata: Mesh Cutoff                                 =   300.0000 Ry
redata: Net charge of the system                    =     0.0000 |e|
redata: Min. number of SCF Iter                     =        0
redata: Max. number of SCF Iter                     =      300
redata: SCF convergence failure will abort job
redata: SCF mix quantity                            = Hamiltonian
redata: Mix DM or H after convergence               =   F
redata: Recompute H after scf cycle                 =   F
redata: Mix DM in first SCF step                    =   T
redata: Write Pulay info on disk                    =   F
redata: New DM Occupancy tolerance                  = 0.000000000001
redata: No kicks to SCF
redata: DM Mixing Weight for Kicks                  =     0.5000
redata: Require Harris convergence for SCF          =   F
redata: Harris energy tolerance for SCF             =     0.000100 eV
redata: Require DM convergence for SCF              =   T
redata: DM tolerance for SCF                        =     0.000100
redata: Require EDM convergence for SCF             =   F
redata: EDM tolerance for SCF                       =     0.001000 eV
redata: Require H convergence for SCF               =   T
redata: Hamiltonian tolerance for SCF               =     0.001000 eV
redata: Require (free) Energy convergence for SCF   =   F
redata: (free) Energy tolerance for SCF             =     0.000100 eV
redata: Using Saved Data (generic)                  =   F
redata: Use continuation files for DM               =   T
redata: Neglect nonoverlap interactions             =   F
redata: Method of Calculation                       = Transiesta
redata: Fix the spin of the system                  =   F
redata: Dynamics option                             = Single-point calculation
mix.SCF: Pulay mixing                            = Pulay
mix.SCF:    Variant                              = stable
mix.SCF:    History steps                        = 5
mix.SCF:    Linear mixing weight                 =     0.050000
mix.SCF:    Mixing weight                        =     0.050000
mix.SCF:    SVD condition                        = 0.1000E-07
redata: Save all siesta data in one NC              =   F
redata: ***********************************************************************

%block SCF.Mixers
  Pulay
%endblock SCF.Mixers

%block SCF.Mixer.Pulay
  # Mixing method
  method pulay
  variant stable

  # Mixing options
  weight 0.0500
  weight.linear 0.0500
  history 5
%endblock SCF.Mixer.Pulay

DM_history_depth set to one: no extrapolation allowed by default for geometry relaxation
Size of DM history Fstack: 1
Total number of electrons:  1232.000000
Total ionic charge:  1232.000000

* ProcessorY, Blocksize:    2  24


* Orbital distribution balance (max,min):   144   120

k-point displ. along   1 input, could be:     0.00    0.50
k-point displ. along   2 input, could be:     0.00    0.50
k-point displ. along   3 input, could be:     0.00    0.50
 Kpoints in:            8 . Kpoints trimmed:            8

siesta: k-grid: Number of k-points =     8
siesta: k-grid: Cutoff (effective) =     8.651 Ang
siesta: k-grid: Supercell and displacements
siesta: k-grid:    2   0   0      0.000
siesta: k-grid:    0   2   0      0.000
siesta: k-grid:    0   0   2      0.000

diag: Algorithm                                     = D&C
diag: Parallel over k                               =   F
diag: Use parallel 2D distribution                  =   T
diag: Parallel block-size                           = 24
diag: Parallel distribution                         =     2 x     4
diag: Used triangular part                          = Lower
diag: Absolute tolerance                            =  0.100E-15
diag: Orthogonalization factor                      =  0.100E-05
diag: Memory factor                                 =  1.0000

superc: Internal auxiliary supercell:     5 x     5 x     3  =      75
superc: Number of atoms, orbitals, and projectors:   8400  75600 159600

k-point displ. along   1 input, could be:     0.00    0.50
k-point displ. along   2 input, could be:     0.00    0.50
 Kpoints in:            4 . Kpoints trimmed:            4

transiesta: k-grid: Number of Green function k-points =     4
transiesta: k-grid: Supercell and displacements
transiesta: k-grid:    2   0   0      0.000
transiesta: k-grid:    0   2   0      0.000
transiesta: k-grid:    0   0   1      0.000
Electrode: Left has very few k-points in the semi-infinite direction, at least 20 is recommended.
Electrode: Right has very few k-points in the semi-infinite direction, at least 20 is recommended.

ts: **************************************************************
ts: Voltage                                         =    0.2500 Volts
ts: Save H and S matrices                           =    T
ts: Electronic temperature                          =  299.986869 K
ts: Transport along unit-cell vector                =    A3
ts: Transport along Cartesian vector                =    Z
ts: Fixing Hartree potential at cell boundary       =    -C
ts: Fix Hartree potential fraction                  =    1.0000
ts: Hartree potential offset                        =    0.000000 eV
ts: Solution method                                 =    BTD
ts: BTD pivoting method                             =    atom+Left
ts: BTD creation algorithm                          =    speed
ts: BTD spectral function algorithm                 =    propagation
ts: SCF DM tolerance                                = 0.100E-03
ts: SCF Hamiltonian tolerance                       =    0.001000 eV
ts: SCF converge charge                             =    T
ts: SCF charge tolerance                            = 0.123E+01
ts: Initialize DM by                                =    diagon
ts: Hartree potential ramp across entire cell
ts: Non-equilibrium contour weight method           =    orb-orb
ts: Non-equilibrium contour weight k-method         =    Correlated k-points
ts: Will not correct charge fluctuations
ts: TS.SCF mixing options same as SCF
ts:           >> Electrodes << 
ts: >> Left
ts:   Electrode cell pivoting: E1, E2, E3           = A1, A2, A3
ts:   GF file                                       = au_100.TSGFLeft
ts:   Reuse existing GF-file                        =    F
ts:   Electrode TSHS file                           = ./elec_au_100.TSHS
ts:   # atoms used in electrode                     =    4
ts:   Electrode Bloch repeating [E1 x E2 x E3]      = 3 x 3 x 1
ts:   Position in geometry                          = 1 -- 36
ts:   Semi-infinite direction for electrode         = negative wrt. E3
ts:   Chemical shift                                =    0.125000 eV
ts:   Electronic temperature                        =  299.986869 K
ts:   Gamma-only electrode                          =    F
ts:   Bulk H, S in electrode region                 =    T
ts:   Initial DM for electrodes                     = diagon
ts:   Pre-expansion to reduce computation           = H, S, GS
ts:   Cross-terms are not updated
ts:   Manual delta-Ef shift                         =    0.000000 eV
ts:   Hamiltonian E-C bias fractional shift         =    0.0000
ts:   Electrode self-energy imaginary Eta           =  0.1000E-02 eV
ts:   Electrode self-energy accuracy                =  0.1000E-12 eV
ts:   Electrode inter-layer distance (semi-inf)     =    2.0391 Ang
ts: >> Right
ts:   Electrode cell pivoting: E1, E2, E3           = A1, A2, A3
ts:   GF file                                       = au_100.TSGFRight
ts:   Reuse existing GF-file                        =    F
ts:   Electrode TSHS file                           = ./elec_au_100.TSHS
ts:   # atoms used in electrode                     =    4
ts:   Electrode Bloch repeating [E1 x E2 x E3]      = 3 x 3 x 1
ts:   Position in geometry                          = 77 -- 112
ts:   Semi-infinite direction for electrode         = positive wrt. E3
ts:   Chemical shift                                =   -0.125000 eV
ts:   Electronic temperature                        =  299.986869 K
ts:   Gamma-only electrode                          =    F
ts:   Bulk H, S in electrode region                 =    T
ts:   Initial DM for electrodes                     = diagon
ts:   Pre-expansion to reduce computation           = H, S, GS
ts:   Cross-terms are not updated
ts:   Manual delta-Ef shift                         =    0.000000 eV
ts:   Hamiltonian E-C bias fractional shift         =    0.0000
ts:   Electrode self-energy imaginary Eta           =  0.1000E-02 eV
ts:   Electrode self-energy accuracy                =  0.1000E-12 eV
ts:   Electrode inter-layer distance (semi-inf)     =    2.0391 Ang
ts:  ----------------- Contour ----------------- 
ts:            >> Residual contour << 
ts: Pole chemical potential                         =    0.1250 eV
ts:    Chemical potential temperature               =  299.9869 K
ts:    Number of poles                              =   16
ts:    Top energy point                             =    2.5988 eV
ts: Pole chemical potential                         =   -0.1250 eV
ts:    Chemical potential temperature               =  299.9869 K
ts:    Number of poles                              =   16
ts:    Top energy point                             =    2.5988 eV
ts:          >> Equilibrium contour << 
ts: Contour name                                    =    TS.Contour.c-Left
ts:   circle contour E_min                          =  -39.8750 eV
ts:   circle contour E_max                          =   -0.1335 eV
ts:   circle contour points                         =   30
ts:   circle contour method                         =    Gauss-Legendre
ts: Contour name                                    =    TS.Contour.t-Left
ts:   tail contour E_min                            =   -0.1335 eV
ts:   tail contour E_max                            =     Infinity
ts:   tail contour points                           =   10
ts:   tail contour method                           =    Gauss-Fermi (0kT)
ts: Contour name                                    =    TS.Contour.c-Right
ts:   circle contour E_min                          =  -40.1250 eV
ts:   circle contour E_max                          =   -0.3835 eV
ts:   circle contour points                         =   30
ts:   circle contour method                         =    Gauss-Legendre
ts: Contour name                                    =    TS.Contour.t-Right
ts:   tail contour E_min                            =   -0.3835 eV
ts:   tail contour E_max                            =     Infinity
ts:   tail contour points                           =   10
ts:   tail contour method                           =    Gauss-Fermi (0kT)
ts:         >> non-Equilibrium contour << 
ts: Device Green function imaginary Eta             = 0.1000E-03 eV
ts: Fermi-function cut-off                          =  5.000     kT
ts: Contour name                                    =    TS.Contour.nEq.neq
ts:   line contour E_min                            =   -0.2543 eV
ts:   line contour E_max                            =    0.2543 eV
ts:   line contour points                           =   51
ts:   line contour method                           =    Mid-rule
ts: **************************************************************

************************ Begin: TS CHECKS AND WARNINGS ************************
Without loosing performance you can increase the non-equilibrium integration precision.
You can add 5 more energy points in the non-equilibrium contours, for FREE!
Electrode Left will not update cross-terms or local region.
Electrode Left is using Bloch unfolding using the repeat scheme! Please use the tiling scheme (it is orders of magnitudes faster!).
Electrode Right will not update cross-terms or local region.
Electrode Right is using Bloch unfolding using the repeat scheme! Please use the tiling scheme (it is orders of magnitudes faster!).
************************ End: TS CHECKS AND WARNINGS **************************

                  ****************************************
                   TRANSIESTA REPORTED IMPORTANT WARNINGS
                  ****************************************

>>> TranSiesta block information for FDF-file START <<<

%block TS.ChemPots
  Left
  Right
%endblock TS.ChemPots

%block TS.ChemPot.Left
  mu  V/2
  contour.eq
   begin
    c-Left
    t-Left
   end
%endblock TS.ChemPot.Left
%block TS.ChemPot.Right
  mu  - V/2
  contour.eq
   begin
    c-Right
    t-Right
   end
%endblock TS.ChemPot.Right
%block TS.Contour.c-Left
  part circle
     from -40.00000 eV + V/2 to -10. kT + V/2
      points 30
        method g-legendre
%endblock TS.Contour.c-Left
%block TS.Contour.t-Left
  part tail
     from prev to + inf
      points 10
        method g-fermi
%endblock TS.Contour.t-Left
%block TS.Contour.c-Right
  part circle
     from -40.00000 eV - V/2 to -10. kT - V/2
      points 30
        method g-legendre
%endblock TS.Contour.c-Right
%block TS.Contour.t-Right
  part tail
     from prev to + inf
      points 10
        method g-fermi
%endblock TS.Contour.t-Right
%block TS.Contours.nEq
    neq
%endblock TS.Contours.nEq

%block TS.Contour.nEq.neq
  part line
     from - |V|/2 - 5 kT to |V|/2 + 5 kT
      delta 0.01 eV
        method mid-rule
%endblock TS.Contour.nEq.neq

>>> TranSiesta block information for FDF-file END <<<


transiesta: Regions of atoms:
   ## (36): Elec.Left
     [ 1 -- 36 ]
   ## (36): Elec.Right
     [ 77 -- 112 ]
   -- (40): Device
     [ 37 -- 76 ]

  <sparsity:./elec_au_100.TSHS
    nrows_g=36 nrows=36 sparsity=46.6327 nnzs=60436, refcount: 3>
  <sparsity:(TM [--,--, 0] of: ./elec_au_100.TSHS)
    nrows_g=36 nrows=36 sparsity=26.8025 nnzs=34736, refcount: 3>
  <sparsity:(TM [--,--,-1] of: ./elec_au_100.TSHS)
    nrows_g=36 nrows=36 sparsity=9.9151 nnzs=12850, refcount: 3>
 Left principal cell is perfect!

Calculating all surface Green functions for: Left
 Fermi level shift in electrode (chemical potential) :        0.12500  eV
 Atoms available    / used atoms   :      4 /      4
 Orbitals available / used orbitals:     36 /     36
 Total self-energy calculations: 5868
 Bloch expansion k-points in A_1 direction [b_1]: 3
 Bloch expansion k-points in A_2 direction [b_2]: 3
 Saving surface Green functions in: au_100.TSGFLeft
 Estimated file size:   1057.192 MB
 Lopez Sancho, Lopez Sancho & Rubio recursive surface self-energy calculation...
 Lopez Sancho, Lopez Sancho & Rubio: Mean/std iterations:     6.6794 /     4.8257
 Lopez Sancho, Lopez Sancho & Rubio: Min/Max iterations :          3 /         16
Done creating 'au_100.TSGFLeft'.

  <sparsity:./elec_au_100.TSHS
    nrows_g=36 nrows=36 sparsity=46.6327 nnzs=60436, refcount: 3>
  <sparsity:(TM [--,--, 0] of: ./elec_au_100.TSHS)
    nrows_g=36 nrows=36 sparsity=26.8025 nnzs=34736, refcount: 3>
  <sparsity:(TM [--,--, 1] of: ./elec_au_100.TSHS)
    nrows_g=36 nrows=36 sparsity=9.9151 nnzs=12850, refcount: 3>
 Right principal cell is perfect!

Calculating all surface Green functions for: Right
 Fermi level shift in electrode (chemical potential) :       -0.12500  eV
 Atoms available    / used atoms   :      4 /      4
 Orbitals available / used orbitals:     36 /     36
 Total self-energy calculations: 5868
 Bloch expansion k-points in A_1 direction [b_1]: 3
 Bloch expansion k-points in A_2 direction [b_2]: 3
 Saving surface Green functions in: au_100.TSGFRight
 Estimated file size:   1057.192 MB
 Lopez Sancho, Lopez Sancho & Rubio recursive surface self-energy calculation...
 Lopez Sancho, Lopez Sancho & Rubio: Mean/std iterations:     6.8430 /     4.8957
 Lopez Sancho, Lopez Sancho & Rubio: Min/Max iterations :          3 /         16
Done creating 'au_100.TSGFRight'.


                     ====================================
                        Single-point calculation
                     ====================================

superc: Internal auxiliary supercell:     5 x     5 x     3  =      75
superc: Number of atoms, orbitals, and projectors:   8400  75600 159600

outcell: Unit cell vectors (Ang):
        8.651160    0.000000    0.000000
        0.000000    8.651160    0.000000
        0.000000    0.000000   32.625600

outcell: Cell vector modules (Ang)   :    8.651160    8.651160   32.625600
outcell: Cell angles (23,13,12) (deg):     90.0000     90.0000     90.0000
outcell: Cell volume (Ang**3)        :   2441.7837
<dSpData1D:S at geom step 0
  <sparsity:sparsity for geom step 0
    nrows_g=1008 nrows=144 sparsity=.2100 nnzs=213382, refcount: 7>
  <dData1D:(new from dSpData1D) n=213382, refcount: 1>
refcount: 1>
new_DM -- step:     1
Initializing Density Matrix...

Attempting to read DM, EDM from TSDE file... Failed...
Attempting to read DM from file... Failed...
DM filled with atomic data:
<dSpData2D:DM initialized from atoms
  <sparsity:sparsity for geom step 0
    nrows_g=1008 nrows=144 sparsity=.2100 nnzs=213382, refcount: 8>
  <dData2D:DM n=213382 m=1, refcount: 1>
refcount: 1>

transiesta: Initialization run using siesta

ts: We highly recommend you to perform 0-bias calculations before *any* bias calculations

No. of atoms with KB's overlaping orbs in proc 0. Max # of overlaps:     400     315
New grid distribution:   1
           1       1:   48    1:   24    1:   45
           2       1:   48    1:   24   46:   90
           3       1:   48    1:   24   91:  135
           4       1:   48    1:   24  136:  180
           5       1:   48   25:   48    1:   45
           6       1:   48   25:   48   46:   90
           7       1:   48   25:   48   91:  135
           8       1:   48   25:   48  136:  180

InitMesh: MESH =    96 x    96 x   360 =     3317760
InitMesh: (bp) =    48 x    48 x   180 =      414720
InitMesh: Mesh cutoff (required, used) =   300.000   336.504 Ry
ExtMesh (bp) on 0 =   136 x   112 x   133 =     2025856
New grid distribution:   2
           1       1:   48    1:   24    1:   32
           2       1:   48    1:   23   33:  114
           3       1:   48    1:   24  115:  148
           4       1:   48    1:   24  149:  180
           5       1:   48   25:   48    1:   32
           6       1:   48   24:   48   33:  114
           7       1:   48   25:   48  115:  148
           8       1:   48   25:   48  149:  180
New grid distribution:   3
           1       1:   48   25:   48  137:  180
           2       1:   48    1:   23   45:   92
           3       1:   48    1:   24    1:   44
           4       1:   48    1:   24  137:  180
           5       1:   48   25:   48    1:   44
           6       1:   48   24:   48   45:   92
           7       1:   48   25:   48   93:  136
           8       1:   48    1:   24   93:  136
Setting up quadratic distribution...
ExtMesh (bp) on 0 =   136 x   112 x   120 =     1827840
PhiOnMesh: Number of (b)points on node 0 =                36864
PhiOnMesh: nlist on node 0 =              3132414

ts-voltage: Ramp  0.125 eV to -0.125 eV placed in cell
ts-Vha: -0.23435E-05 eV

stepf: Fermi-Dirac step function
ts-Vha: -0.33057E+02 eV

siesta: Program's energy decomposition (eV):
siesta: Ebs     =     19107.133393
siesta: Eions   =    106428.788183
siesta: Ena     =       385.361141
siesta: Ekin    =     71408.644366
siesta: Enl     =    -46019.430725
siesta: Eso     =         0.000000
siesta: Edftu   =         0.000000
siesta: DEna    =       167.541342
siesta: DUscf   =       282.473293
siesta: DUext   =         0.000000
siesta: Exc     =    -80118.634328
siesta: eta*DQ  =         0.000000
siesta: Emadel  =         0.000000
siesta: Emeta   =         0.000000
siesta: Emolmec =         0.000000
siesta: Ekinion =         0.000000
siesta: Eharris =   -159818.219481
siesta: Etot    =   -160322.833095
siesta: FreeEng =   -160322.927286

        iscf     Eharris(eV)        E_KS(eV)     FreeEng(eV)     dDmax    Ef(eV) dHmax(eV)
   scf:    1  -159818.219481  -160322.833095  -160322.927286  0.762098 -1.964111 75.379140
timer: Routine,Calls,Time,% = IterSCF        1      20.590  45.15
ts-Vha:  0.89487E+02 eV
   scf:    2  -156843.148259  -159520.881837  -159521.001856  0.898333 -0.887920170.113695
ts-Vha:  0.73598E+01 eV
   scf:    3  -160668.737610  -160496.870592  -160497.003156  0.321167 -1.825533 16.533210
ts-Vha: -0.15067E+01 eV
   scf:    4  -160512.816855  -160513.053933  -160513.220330  0.204380 -2.037466  3.783646
ts-Vha:  0.10261E+01 eV
   scf:    5  -160499.237914  -160511.476535  -160511.590436  0.188365 -1.925037  6.509901
ts-Vha: -0.46035E+00 eV
   scf:    6  -160522.025033  -160518.999676  -160519.138296  0.180014 -2.045416  3.822711
ts-Vha:  0.96650E-01 eV
   scf:    7  -160520.090574  -160519.819096  -160519.955726  0.005801 -2.048595  3.375802
ts-Vha:  0.74511E-01 eV
   scf:    8  -160524.762227  -160522.354951  -160522.492239  0.035661 -2.107986  3.188989
ts-Vha: -0.30463E+01 eV
   scf:    9  -160529.176020  -160526.659948  -160526.801823  0.036793 -2.292207  4.319509
ts-Vha: -0.34409E+00 eV
   scf:   10  -160530.058917  -160528.896685  -160529.032518  0.038777 -2.339017  1.786149
ts-Vha: -0.69485E+00 eV
   scf:   11  -160531.036415  -160530.085677  -160530.223051  0.025438 -2.452974  0.551630
ts-Vha: -0.98270E+00 eV
   scf:   12  -160530.358354  -160530.246996  -160530.385653  0.012727 -2.483889  0.599750
ts-Vha: -0.88846E+00 eV
   scf:   13  -160530.231706  -160530.241965  -160530.380551  0.001705 -2.476500  0.396142
ts-Vha: -0.83011E+00 eV
   scf:   14  -160530.319153  -160530.283874  -160530.422768  0.003435 -2.484868  0.220618
ts-Vha: -0.83117E+00 eV
   scf:   15  -160530.320961  -160530.303627  -160530.442528  0.002419 -2.492586  0.201333
ts-Vha: -0.76748E+00 eV
   scf:   16  -160530.324588  -160530.315458  -160530.454112  0.003010 -2.498234  0.070473
ts-Vha: -0.75893E+00 eV
   scf:   17  -160530.317127  -160530.316320  -160530.454962  0.000287 -2.499296  0.087338
ts-Vha: -0.76770E+00 eV
   scf:   18  -160530.316575  -160530.316471  -160530.455140  0.000349 -2.499999  0.068992
ts-Vha: -0.76772E+00 eV
   scf:   19  -160530.317929  -160530.317225  -160530.455874  0.000258 -2.501157  0.073446
ts-Vha: -0.76790E+00 eV
   scf:   20  -160530.320471  -160530.319037  -160530.457604  0.001006 -2.504986  0.046926
ts-Vha: -0.76714E+00 eV
   scf:   21  -160530.320327  -160530.319864  -160530.458300  0.001182 -2.508747  0.044671
ts-Vha: -0.76829E+00 eV
   scf:   22  -160530.321416  -160530.320670  -160530.459030  0.000810 -2.509519  0.036224
ts-Vha: -0.81025E+00 eV
   scf:   23  -160530.322881  -160530.322128  -160530.460345  0.002737 -2.511806  0.064285
ts-Vha: -0.78098E+00 eV
   scf:   24  -160530.321483  -160530.321901  -160530.460181  0.001249 -2.510207  0.015377
ts-Vha: -0.78489E+00 eV
   scf:   25  -160530.322120  -160530.322038  -160530.460325  0.000269 -2.509516  0.025067
ts-Vha: -0.78687E+00 eV
   scf:   26  -160530.322486  -160530.322284  -160530.460567  0.000566 -2.509458  0.018807
ts-Vha: -0.78504E+00 eV
   scf:   27  -160530.322444  -160530.322373  -160530.460662  0.000312 -2.508776  0.011004
ts-Vha: -0.78114E+00 eV
   scf:   28  -160530.322562  -160530.322480  -160530.460744  0.000403 -2.508752  0.010434
ts-Vha: -0.78487E+00 eV
   scf:   29  -160530.322559  -160530.322525  -160530.460761  0.000403 -2.509454  0.003698
ts-Vha: -0.78535E+00 eV
   scf:   30  -160530.322534  -160530.322530  -160530.460764  0.000052 -2.509634  0.003087
ts-Vha: -0.78566E+00 eV
   scf:   31  -160530.322528  -160530.322531  -160530.460771  0.000105 -2.510084  0.003097
ts-Vha: -0.78546E+00 eV
   scf:   32  -160530.322531  -160530.322531  -160530.460772  0.000008 -2.510124  0.001987
ts-Vha: -0.78559E+00 eV
   scf:   33  -160530.322534  -160530.322533  -160530.460772  0.000032 -2.510321  0.001326
ts-Vha: -0.78539E+00 eV
   scf:   34  -160530.322532  -160530.322532  -160530.460772  0.000011 -2.510371  0.001460
ts-Vha: -0.78545E+00 eV
   scf:   35  -160530.322532  -160530.322532  -160530.460772  0.000002 -2.510397  0.001331
ts-Vha: -0.78567E+00 eV
   scf:   36  -160530.322521  -160530.322527  -160530.460774  0.000078 -2.510495  0.000716

SCF Convergence by DM+H criterion
max |DM_out - DM_in|         :     0.0000777320
max |H_out - H_in|      (eV) :     0.0007157637
SCF cycle converged after 36 iterations

                     ***************************
                     *  WELCOME TO TRANSIESTA  *
                     ***************************

ts-Vha: -0.78567E+00 eV

transiesta: created H and S sparsity pattern:
  <sparsity:(M of: G ((UC of: T T T sparsity for geom step 0)))
    nrows_g=1008 nrows=1008 sparsity=.2331 nnzs=236872, refcount: 1>

transiesta: created local update sparsity pattern:
  <sparsity:(M of: T T T sparsity for geom step 0)
    nrows_g=1008 nrows=144 sparsity=.0292 nnzs=29645, refcount: 1>

transiesta: created update sparsity pattern:
  <sparsity:G ((UC of: (M of: T T T sparsity for geom step 0)))
    nrows_g=1008 nrows=1008 sparsity=.0688 nnzs=69916, refcount: 1>

transiesta: Determining an optimal tri-matrix using: atom+Left
transiesta: Established a near-optimal partition for the tri-diagonal matrix.
BTD partitions (5): 
  [ 81, 324, 108, 252, 243 ]
transiesta: Matrix elements in % of full matrix:  53.65115 %

transiesta: mem of electrodes (static):                     9.61MB
transiesta: mem of global update arrays (static):          11.50MB
transiesta: mem of master node sparse arrays:               1.36MB
transiesta: mem of tri-diagonal matrices:                  16.64MB
transiesta: Total memory usage:                            39.11MB

transiesta: Charge distribution, target =   1232.00000
Total charge                  [Q]  :   1232.00000
Device                        [D]  :    436.15011
Left                          [E1] :    392.16177
Left                 / device [C1] :      3.85824
Right                         [E2] :    392.16179
Right                / device [C2] :      3.85823
Other                         [O]  :      3.80987
Excess charge                [dQ]  :  6.13909E-12

ts-err-D: ij(  352,   352), M = 0.67316   , ew = -.71705E-3, em = 0.72475E-3. avg_em = 0.19573E-06
ts-err-E: ij(  496,   505), M = -.93957   , ew = 0.20924E-4, em = -.38099E-4. avg_em = -.76523E-08
ts-w-q:               qP1       qP2
ts-w-q:           218.579   217.564
ts-q:         D        E1        C1        E2        C2        dQ
ts-q:   436.143   392.162     3.858   392.162     3.858 -.687E-02
ts-Vha: -0.35204E+00 eV

siesta: Program's energy decomposition (eV):
siesta: Ebs     =     -8883.721404
siesta: Eions   =    106428.788183
siesta: Ena     =       385.361141
siesta: Ekin    =     73177.453289
siesta: Enl     =    -47365.089333
siesta: Eso     =         0.000000
siesta: Edftu   =         0.000000
siesta: DEna    =       105.734905
siesta: DUscf   =        42.636291
siesta: DUext   =         0.000000
siesta: Exc     =    -80446.647353
siesta: eta*DQ  =         0.000000
siesta: Emadel  =         0.000000
siesta: Emeta   =         0.000000
siesta: Emolmec =         0.000000
siesta: Ekinion =         0.000000
siesta: Eharris =   -160527.153046
siesta: Etot    =   -160529.339243
siesta: FreeEng =   -160529.339243
ts: E-dN      =         0.126823
ts: Band Stru =     -3053.112216
ts: Kinetic   =     26126.986108
ts: Ion-elec  =   -511486.291253
ts: Eharris   =   -177179.419447
ts: Etot      =   -177181.605643
ts: FreeEng   =   -177181.605643

        iscf     Eharris(eV)        E_KS(eV)     FreeEng(eV)     dDmax    Ef(eV) dHmax(eV)
ts-scf:    1  -177179.419447  -177181.605643  -177181.605643  0.026348 -2.510495  3.579431
timer: Routine,Calls,Time,% = TS             1      22.095   3.33
ts-err-D: ij(  447,   447), M =  1.8253   , ew = -.85577E-2, em = 0.86651E-2. avg_em = 0.35474E-05
ts-err-E: ij(  447,   447), M = -6.6731   , ew = 0.11268E-2, em = -.11409E-2. avg_em = -.46117E-06
ts-w-q:               qP1       qP2
ts-w-q:           218.309   218.206
ts-q:         D        E1        C1        E2        C2        dQ
ts-q:   436.516   392.162     3.858   392.162     3.858 0.366E+00
ts-Vha: -0.21167E+01 eV
ts-scf:    2  -177170.111912  -177180.617109  -177180.617109  0.044126 -2.510495  7.429530
ts-err-D: ij(  456,   456), M =  1.8263   , ew = -.20006E-2, em = 0.20415E-2. avg_em = 0.91169E-06
ts-err-E: ij(  456, 21642), M = 0.15687E-1, ew = 0.18452E-3, em = -.32875E-3. avg_em = -.13041E-06
ts-w-q:               qP1       qP2
ts-w-q:           218.893   217.081
ts-q:         D        E1        C1        E2        C2        dQ
ts-q:   435.974   392.162     3.858   392.162     3.858 -.176E+00
ts-Vha: -0.44178E+00 eV
ts-scf:    3  -177180.400052  -177182.045344  -177182.045344  0.034746 -2.510495  0.836829
ts-err-D: ij(  447,   447), M =  1.8276   , ew = -.25917E-2, em = 0.25945E-2. avg_em = 0.11339E-05
ts-err-E: ij(  456, 21642), M = 0.15050E-1, ew = 0.43144E-3, em = -.43488E-3. avg_em = -.17503E-06
ts-w-q:               qP1       qP2
ts-w-q:           219.333   216.809
ts-q:         D        E1        C1        E2        C2        dQ
ts-q:   436.141   392.162     3.858   392.162     3.858 -.887E-02
ts-Vha: -0.74007E+00 eV
ts-scf:    4  -177183.064499  -177182.585196  -177182.585196  0.004168 -2.510495  0.195447
ts-err-D: ij(  447,   447), M =  1.8273   , ew = -.23843E-2, em = 0.23875E-2. avg_em = 0.10524E-05
ts-err-E: ij(  456, 21642), M = 0.14983E-1, ew = 0.39907E-3, em = -.40309E-3. avg_em = -.16186E-06
ts-w-q:               qP1       qP2
ts-w-q:           219.301   216.897
ts-q:         D        E1        C1        E2        C2        dQ
ts-q:   436.198   392.162     3.858   392.162     3.858 0.479E-01
ts-Vha: -0.85481E+00 eV
ts-scf:    5  -177182.975745  -177182.814445  -177182.814445  0.004301 -2.510495  0.196218
ts-err-D: ij(  447,   447), M =  1.8273   , ew = -.23777E-2, em = 0.23809E-2. avg_em = 0.10496E-05
ts-err-E: ij(  456, 21642), M = 0.14980E-1, ew = 0.39793E-3, em = -.40197E-3. avg_em = -.16136E-06
ts-w-q:               qP1       qP2
ts-w-q:           219.287   216.895
ts-q:         D        E1        C1        E2        C2        dQ
ts-q:   436.181   392.162     3.858   392.162     3.858 0.311E-01
ts-Vha: -0.81826E+00 eV
ts-scf:    6  -177182.714203  -177182.758816  -177182.758816  0.002106 -2.510495  0.087236
ts-err-D: ij(  447,   447), M =  1.8273   , ew = -.25677E-2, em = 0.25703E-2. avg_em = 0.11233E-05
ts-err-E: ij(  456, 21642), M = 0.15027E-1, ew = 0.42815E-3, em = -.43117E-3. avg_em = -.17350E-06
ts-w-q:               qP1       qP2
ts-w-q:           219.312   216.837
ts-q:         D        E1        C1        E2        C2        dQ
ts-q:   436.149   392.162     3.858   392.162     3.858 -.101E-02
ts-Vha: -0.76708E+00 eV
ts-scf:    7  -177182.555167  -177182.639581  -177182.639581  0.002715 -2.510495  0.034781
ts-err-D: ij(  447,   447), M =  1.8273   , ew = -.25425E-2, em = 0.25450E-2. avg_em = 0.11136E-05
ts-err-E: ij(  456, 21642), M = 0.15015E-1, ew = 0.42446E-3, em = -.42748E-3. avg_em = -.17196E-06
ts-w-q:               qP1       qP2
ts-w-q:           219.306   216.851
ts-q:         D        E1        C1        E2        C2        dQ
ts-q:   436.156   392.162     3.858   392.162     3.858 0.639E-02
ts-Vha: -0.78030E+00 eV
ts-scf:    8  -177182.696778  -177182.672390  -177182.672390  0.000461 -2.510495  0.010160
ts-err-D: ij(  447,   447), M =  1.8273   , ew = -.25561E-2, em = 0.25586E-2. avg_em = 0.11191E-05
ts-err-E: ij(  456, 21642), M = 0.15018E-1, ew = 0.42661E-3, em = -.42959E-3. avg_em = -.17285E-06
ts-w-q:               qP1       qP2
ts-w-q:           219.305   216.853
ts-q:         D        E1        C1        E2        C2        dQ
ts-q:   436.158   392.162     3.858   392.162     3.858 0.765E-02
ts-Vha: -0.78273E+00 eV
ts-scf:    9  -177182.692320  -177182.683093  -177182.683093  0.000720 -2.510495  0.006605
ts-err-D: ij(  447,   447), M =  1.8274   , ew = -.25755E-2, em = 0.25780E-2. avg_em = 0.11269E-05
ts-err-E: ij(  456, 21642), M = 0.15026E-1, ew = 0.42957E-3, em = -.43253E-3. avg_em = -.17409E-06
ts-w-q:               qP1       qP2
ts-w-q:           219.305   216.853
ts-q:         D        E1        C1        E2        C2        dQ
ts-q:   436.159   392.162     3.858   392.162     3.858 0.840E-02
ts-Vha: -0.78388E+00 eV
ts-scf:   10  -177182.698176  -177182.690920  -177182.690920  0.000333 -2.510495  0.005680
ts-err-D: ij(  447,   447), M =  1.8274   , ew = -.26070E-2, em = 0.26095E-2. avg_em = 0.11395E-05
ts-err-E: ij(  456, 21642), M = 0.15040E-1, ew = 0.43420E-3, em = -.43720E-3. avg_em = -.17607E-06
ts-w-q:               qP1       qP2
ts-w-q:           219.305   216.853
ts-q:         D        E1        C1        E2        C2        dQ
ts-q:   436.158   392.162     3.858   392.162     3.858 0.779E-02
ts-Vha: -0.78302E+00 eV
ts-scf:   11  -177182.700867  -177182.695622  -177182.695622  0.000388 -2.510495  0.003721
ts-err-D: ij(  447,   447), M =  1.8274   , ew = -.26101E-2, em = 0.26126E-2. avg_em = 0.11407E-05
ts-err-E: ij(  456, 21642), M = 0.15041E-1, ew = 0.43465E-3, em = -.43766E-3. avg_em = -.17627E-06
ts-w-q:               qP1       qP2
ts-w-q:           219.305   216.853
ts-q:         D        E1        C1        E2        C2        dQ
ts-q:   436.158   392.162     3.858   392.162     3.858 0.785E-02
ts-Vha: -0.78314E+00 eV
ts-scf:   12  -177182.698186  -177182.696989  -177182.696989  0.000050 -2.510495  0.002872
ts-err-D: ij(  447,   447), M =  1.8275   , ew = -.26181E-2, em = 0.26206E-2. avg_em = 0.11440E-05
ts-err-E: ij(  456, 21642), M = 0.15045E-1, ew = 0.43580E-3, em = -.43884E-3. avg_em = -.17677E-06
ts-w-q:               qP1       qP2
ts-w-q:           219.304   216.854
ts-q:         D        E1        C1        E2        C2        dQ
ts-q:   436.158   392.162     3.858   392.162     3.858 0.771E-02
ts-Vha: -0.78293E+00 eV
ts-scf:   13  -177182.700663  -177182.698858  -177182.698858  0.000139 -2.510495  0.001267
ts-err-D: ij(  447,   447), M =  1.8275   , ew = -.26184E-2, em = 0.26210E-2. avg_em = 0.11442E-05
ts-err-E: ij(  456, 21642), M = 0.15045E-1, ew = 0.43586E-3, em = -.43891E-3. avg_em = -.17680E-06
ts-w-q:               qP1       qP2
ts-w-q:           219.303   216.855
ts-q:         D        E1        C1        E2        C2        dQ
ts-q:   436.158   392.162     3.858   392.162     3.858 0.772E-02
ts-Vha: -0.78291E+00 eV
ts-scf:   14  -177182.699766  -177182.699390  -177182.699390  0.000033 -2.510495  0.000960

SCF Convergence by DM+H+dQ criterion
max |DM_out - DM_in|         :     0.0000333623
max |H_out - H_in|      (eV) :     0.0009596167
     Q(TS) - Q(dev)          :     0.0077215954
SCF cycle converged after 14 iterations

Using DM_out to compute the final energy and forces
No. of atoms with KB's overlaping orbs in proc 0. Max # of overlaps:     400     315
ts-Vha: -0.78291E+00 eV

siesta: E_KS(eV) =          -160530.6123

siesta: E_KS - E_eggbox =   -160530.6123

siesta: Atomic forces (eV/Ang):
----------------------------------------
   Tot   -0.001237   -0.001237    0.208854
----------------------------------------
   Max    1.370418
   Res    0.313634    sqrt( Sum f_i^2 / 3N )
----------------------------------------
   Max    1.370418    constrained

ts: Atomic forces (eV/Ang):
----------------------------------------
   Tot    0.002359    0.002359   -0.015462
----------------------------------------
   Max    1.370418
   Res    0.379599    sqrt( Sum f_i^2 / 3N )
----------------------------------------
   Max    1.370418    constrained

Stress tensor Voigt[x,y,z,yz,xz,xy] (kbar):     -146.94     -146.94     -149.26        0.58        0.58        1.06
(Free)E + p*V (eV/cell)  -160305.4898
Target enthalpy (eV/cell)  -160530.6123

mulliken: Atomic and Orbital Populations:

Species: Au                  
Atom  Qatom  Qorb
               6s      5dxy    5dyz    5dz2    5dxz    5dx2-y2 6Ppy    6Ppz    
               6Ppx    
   1 10.998   0.976   1.932   1.890   1.939   1.890   1.894   0.158   0.161
              0.158
   2 10.999   0.978   1.932   1.890   1.939   1.890   1.894   0.158   0.161
              0.158
   3 10.999   0.978   1.931   1.889   1.939   1.890   1.894   0.158   0.162
              0.158
   4 10.999   0.978   1.932   1.890   1.939   1.890   1.894   0.158   0.161
              0.158
   5 10.999   0.977   1.932   1.889   1.939   1.889   1.894   0.158   0.162
              0.158
   6 10.999   0.977   1.932   1.890   1.938   1.891   1.894   0.158   0.161
              0.158
   7 10.999   0.978   1.931   1.890   1.939   1.889   1.894   0.158   0.162
              0.158
   8 10.999   0.977   1.932   1.891   1.938   1.890   1.894   0.158   0.161
              0.158
   9 10.999   0.976   1.932   1.890   1.938   1.890   1.894   0.159   0.162
              0.159
  10 11.004   0.989   1.934   1.886   1.939   1.886   1.894   0.159   0.159
              0.159
  11 11.001   0.984   1.935   1.887   1.939   1.886   1.894   0.159   0.160
              0.158
  12 11.003   0.986   1.935   1.886   1.939   1.886   1.894   0.159   0.161
              0.158
  13 11.001   0.984   1.935   1.886   1.939   1.887   1.894   0.158   0.160
              0.159
  14 11.001   0.985   1.934   1.888   1.939   1.888   1.894   0.159   0.157
              0.159
  15 11.001   0.983   1.934   1.887   1.939   1.887   1.894   0.159   0.160
              0.159
  16 11.003   0.986   1.935   1.886   1.939   1.886   1.894   0.158   0.161
              0.159
  17 11.001   0.983   1.934   1.887   1.939   1.887   1.894   0.159   0.160
              0.159
  18 11.004   0.987   1.934   1.886   1.939   1.886   1.894   0.158   0.161
              0.158
  19 10.997   0.973   1.932   1.890   1.938   1.890   1.894   0.159   0.164
              0.159
  20 11.000   0.981   1.931   1.889   1.939   1.890   1.893   0.158   0.160
              0.158
  21 11.001   0.982   1.931   1.888   1.939   1.890   1.893   0.158   0.160
              0.159
  22 11.000   0.981   1.931   1.890   1.939   1.889   1.893   0.158   0.160
              0.158
  23 11.000   0.981   1.932   1.889   1.940   1.889   1.894   0.159   0.159
              0.159
  24 11.000   0.981   1.931   1.889   1.940   1.890   1.894   0.158   0.158
              0.159
  25 11.001   0.982   1.931   1.890   1.939   1.888   1.893   0.159   0.160
              0.158
  26 11.000   0.981   1.931   1.890   1.940   1.889   1.894   0.159   0.158
              0.158
  27 10.999   0.979   1.932   1.889   1.939   1.889   1.894   0.159   0.159
              0.159
  28 10.998   0.977   1.935   1.891   1.938   1.891   1.889   0.159   0.160
              0.159
  29 10.999   0.975   1.934   1.890   1.937   1.891   1.889   0.159   0.164
              0.159
  30 10.998   0.977   1.935   1.890   1.938   1.891   1.889   0.159   0.161
              0.159
  31 10.999   0.975   1.934   1.891   1.937   1.890   1.889   0.159   0.164
              0.159
  32 11.001   0.975   1.933   1.890   1.936   1.890   1.890   0.161   0.165
              0.161
  33 10.999   0.975   1.934   1.891   1.937   1.890   1.889   0.159   0.163
              0.160
  34 10.998   0.977   1.935   1.891   1.938   1.890   1.889   0.159   0.161
              0.159
  35 10.999   0.975   1.934   1.890   1.937   1.891   1.889   0.160   0.163
              0.159
  36 10.998   0.975   1.934   1.890   1.937   1.890   1.889   0.159   0.162
              0.159
  37 10.960   0.950   1.937   1.902   1.938   1.902   1.878   0.152   0.148
              0.152
  38 10.972   0.957   1.937   1.902   1.927   1.900   1.881   0.153   0.162
              0.153
  39 10.972   0.961   1.937   1.902   1.926   1.901   1.880   0.153   0.159
              0.152
  40 10.972   0.957   1.937   1.900   1.927   1.902   1.881   0.153   0.162
              0.153
  41 10.973   0.956   1.938   1.901   1.927   1.901   1.878   0.153   0.165
              0.153
  42 10.975   0.959   1.938   1.900   1.926   1.902   1.878   0.153   0.165
              0.153
  43 10.972   0.961   1.937   1.901   1.926   1.902   1.880   0.152   0.159
              0.153
  44 10.975   0.959   1.938   1.902   1.926   1.900   1.878   0.153   0.165
              0.153
  45 10.978   0.965   1.937   1.900   1.926   1.900   1.878   0.154   0.164
              0.154
  46 11.014   1.008   1.950   1.914   1.934   1.914   1.868   0.142   0.141
              0.142
  47 11.028   1.040   1.949   1.921   1.948   1.927   1.861   0.136   0.111
              0.137
  48 11.014   1.015   1.949   1.912   1.938   1.916   1.868   0.144   0.132
              0.141
  49 11.028   1.040   1.949   1.927   1.948   1.921   1.861   0.137   0.111
              0.136
  50 11.034   1.048   1.948   1.922   1.948   1.922   1.861   0.137   0.110
              0.137
  51 11.026   1.041   1.949   1.926   1.948   1.921   1.861   0.135   0.110
              0.135
  52 11.014   1.015   1.949   1.916   1.938   1.912   1.868   0.141   0.132
              0.144
  53 11.026   1.041   1.949   1.921   1.948   1.926   1.861   0.135   0.110
              0.135
  54 11.031   1.032   1.948   1.911   1.936   1.911   1.869   0.144   0.137
              0.144
  55 11.044   1.092   1.927   1.900   1.962   1.900   1.976   0.086   0.117
              0.086
  56 11.005   1.070   1.976   1.939   1.965   1.939   1.986   0.026   0.078
              0.026
  57 11.016   1.090   1.976   1.936   1.965   1.936   1.986   0.025   0.076
              0.025
  58 11.042   1.091   1.926   1.899   1.962   1.899   1.976   0.084   0.123
              0.084
  59 11.013   1.003   1.949   1.914   1.936   1.914   1.867   0.144   0.142
              0.144
  60 11.013   1.010   1.948   1.911   1.938   1.916   1.867   0.146   0.132
              0.143
  61 11.026   1.036   1.948   1.921   1.947   1.928   1.860   0.137   0.110
              0.138
  62 11.013   1.010   1.948   1.916   1.938   1.911   1.867   0.143   0.132
              0.146
  63 11.031   1.029   1.947   1.911   1.936   1.911   1.868   0.146   0.136
              0.146
  64 11.023   1.036   1.948   1.921   1.947   1.927   1.860   0.137   0.108
              0.138
  65 11.026   1.036   1.948   1.928   1.947   1.921   1.860   0.138   0.110
              0.137
  66 11.023   1.036   1.948   1.927   1.947   1.921   1.860   0.138   0.108
              0.137
  67 11.031   1.043   1.948   1.922   1.948   1.922   1.861   0.139   0.108
              0.139
  68 10.959   0.951   1.937   1.901   1.941   1.901   1.877   0.152   0.148
              0.152
  69 10.971   0.961   1.937   1.901   1.927   1.900   1.881   0.152   0.159
              0.152
  70 10.972   0.960   1.937   1.901   1.927   1.899   1.881   0.153   0.161
              0.153
  71 10.971   0.961   1.937   1.900   1.927   1.901   1.881   0.152   0.159
              0.152
  72 10.978   0.966   1.937   1.900   1.926   1.900   1.878   0.153   0.164
              0.153
  73 10.975   0.961   1.938   1.901   1.926   1.900   1.878   0.153   0.164
              0.153
  74 10.972   0.960   1.937   1.899   1.927   1.901   1.881   0.153   0.161
              0.153
  75 10.975   0.961   1.938   1.900   1.926   1.901   1.878   0.153   0.164
              0.153
  76 10.973   0.959   1.938   1.901   1.926   1.901   1.878   0.153   0.164
              0.153
  77 10.998   0.977   1.935   1.891   1.938   1.891   1.889   0.159   0.160
              0.159
  78 10.998   0.977   1.935   1.890   1.938   1.891   1.889   0.159   0.161
              0.159
  79 10.999   0.975   1.934   1.890   1.937   1.891   1.889   0.159   0.164
              0.159
  80 10.998   0.977   1.935   1.891   1.938   1.890   1.889   0.159   0.161
              0.159
  81 10.998   0.975   1.934   1.890   1.937   1.890   1.889   0.159   0.162
              0.159
  82 10.999   0.975   1.934   1.890   1.937   1.891   1.889   0.160   0.163
              0.159
  83 10.999   0.975   1.934   1.891   1.937   1.890   1.889   0.159   0.164
              0.159
  84 10.999   0.975   1.934   1.891   1.937   1.890   1.889   0.159   0.163
              0.160
  85 11.001   0.975   1.933   1.890   1.936   1.890   1.890   0.161   0.165
              0.161
  86 10.997   0.973   1.932   1.890   1.938   1.890   1.894   0.159   0.164
              0.159
  87 11.001   0.982   1.931   1.888   1.939   1.890   1.893   0.158   0.160
              0.159
  88 11.000   0.981   1.931   1.889   1.939   1.890   1.893   0.158   0.160
              0.158
  89 11.001   0.982   1.931   1.890   1.939   1.888   1.893   0.159   0.160
              0.158
  90 10.999   0.979   1.932   1.889   1.939   1.889   1.894   0.159   0.159
              0.159
  91 11.000   0.981   1.931   1.890   1.940   1.889   1.894   0.159   0.158
              0.158
  92 11.000   0.981   1.931   1.890   1.939   1.889   1.893   0.158   0.160
              0.158
  93 11.000   0.981   1.931   1.889   1.940   1.890   1.894   0.158   0.158
              0.159
  94 11.000   0.981   1.932   1.889   1.940   1.889   1.894   0.159   0.159
              0.159
  95 11.004   0.989   1.934   1.886   1.939   1.886   1.894   0.159   0.159
              0.159
  96 11.003   0.986   1.935   1.886   1.939   1.886   1.894   0.159   0.161
              0.158
  97 11.001   0.984   1.935   1.887   1.939   1.886   1.894   0.159   0.160
              0.158
  98 11.003   0.986   1.935   1.886   1.939   1.886   1.894   0.158   0.161
              0.159
  99 11.004   0.987   1.934   1.886   1.939   1.886   1.894   0.158   0.161
              0.158
 100 11.001   0.983   1.934   1.887   1.939   1.887   1.894   0.159   0.160
              0.159
 101 11.001   0.984   1.935   1.886   1.939   1.887   1.894   0.158   0.160
              0.159
 102 11.001   0.983   1.934   1.887   1.939   1.887   1.894   0.159   0.160
              0.159
 103 11.001   0.985   1.934   1.888   1.939   1.888   1.894   0.159   0.157
              0.159
 104 10.998   0.976   1.932   1.890   1.939   1.890   1.894   0.158   0.161
              0.158
 105 10.999   0.978   1.931   1.889   1.939   1.890   1.894   0.158   0.162
              0.158
 106 10.999   0.978   1.932   1.890   1.939   1.890   1.894   0.158   0.161
              0.158
 107 10.999   0.978   1.931   1.890   1.939   1.889   1.894   0.158   0.162
              0.158
 108 10.999   0.976   1.932   1.890   1.938   1.890   1.894   0.159   0.162
              0.159
 109 10.999   0.977   1.932   1.891   1.938   1.890   1.894   0.158   0.161
              0.158
 110 10.999   0.978   1.932   1.890   1.939   1.890   1.894   0.158   0.161
              0.158
 111 10.999   0.977   1.932   1.890   1.938   1.891   1.894   0.158   0.161
              0.158
 112 10.999   0.977   1.932   1.889   1.939   1.889   1.894   0.158   0.162
              0.158

mulliken: Qtot =     1232.008

transiesta: Charge distribution, target =   1232.00000
Total charge                  [Q]  :   1232.00772
Device                        [D]  :    436.15783
Left                          [E1] :    392.16177
Left                 / device [C1] :      3.85824
Right                         [E2] :    392.16179
Right                / device [C2] :      3.85823
Other                         [O]  :      3.80987
Excess charge                [dQ]  :  7.72160E-03


coxmol: Writing XMOL coordinates into file au_100.xyz                                                          

siesta: Program's energy decomposition (eV):
siesta: Ebs     =     -8381.453307
siesta: Eions   =    106428.788183
siesta: Ena     =       385.361141
siesta: Ekin    =     73178.987977
siesta: Enl     =    -47366.215346
siesta: Eso     =         0.000000
siesta: Edftu   =         0.000000
siesta: DEna    =       105.651698
siesta: DUscf   =        41.442903
siesta: DUext   =         0.000000
siesta: Exc     =    -80447.052451
siesta: eta*DQ  =         0.000000
siesta: Emadel  =         0.000000
siesta: Emeta   =         0.000000
siesta: Emolmec =         0.000000
siesta: Ekinion =         0.000000
siesta: Eharris =   -160530.612637
siesta: Etot    =   -160530.612261
siesta: FreeEng =   -160530.612261
ts: E-dN      =         0.306094
ts: Band Stru =     -2846.807566
ts: Kinetic   =     26128.520796
ts: Ion-elec  =   -511992.309681
ts: Eharris   =   -177182.699766
ts: Etot      =   -177182.699390
ts: FreeEng   =   -177182.699390

siesta: Final energy (eV):
siesta:  Band Struct. =   -8381.453307
siesta:       Kinetic =   73178.987977
siesta:       Hartree =  243569.639754
siesta:       Edftu   =       0.000000
siesta:       Eso     =       0.000000
siesta:    Ext. field =       0.000000
siesta:   Exch.-corr. =  -80447.052451
siesta:  Ion-electron = -542390.383639
siesta:       Ion-ion =  145558.196097
siesta:       Ekinion =       0.000000
siesta:         Total = -160530.612261
ts:         E-dN  =       0.306094
ts:     Band Stru =   -2846.807566
ts:       Kinetic =   26128.520796
ts:      Ion-elec = -511992.309681
ts:         Total = -177182.699390
siesta:         Fermi =      -2.510495

siesta: Atomic forces (eV/Ang):
siesta:      1   -0.006189   -0.006189   -0.002368
siesta:      2    0.005882   -0.000402   -0.011385
siesta:      3   -0.000220    0.001164   -0.011023
siesta:      4   -0.000402    0.005882   -0.011385
siesta:      5    0.000555    0.000555    0.012501
siesta:      6   -0.000813   -0.011506   -0.005383
siesta:      7    0.001164   -0.000220   -0.011023
siesta:      8   -0.011506   -0.000813   -0.005383
siesta:      9    0.010874    0.010874    0.009352
siesta:     10    0.001735    0.001735    0.035021
siesta:     11   -0.004576   -0.006050    0.051542
siesta:     12    0.003067   -0.002748    0.038784
siesta:     13   -0.006050   -0.004576    0.051542
siesta:     14   -0.005098   -0.005098    0.038822
siesta:     15    0.010974   -0.003256    0.059516
siesta:     16   -0.002748    0.003067    0.038784
siesta:     17   -0.003256    0.010974    0.059516
siesta:     18    0.005859    0.005859    0.049535
siesta:     19   -0.010780   -0.010780   -0.064901
siesta:     20    0.011077   -0.000270   -0.076386
siesta:     21    0.001477    0.003976   -0.087755
siesta:     22   -0.000270    0.011077   -0.076386
siesta:     23    0.003596    0.003596   -0.099070
siesta:     24   -0.003727   -0.007881   -0.086698
siesta:     25    0.003976    0.001477   -0.087755
siesta:     26   -0.007881   -0.003727   -0.086698
siesta:     27    0.003698    0.003698   -0.091413
siesta:     28    0.008009    0.008009    0.030495
siesta:     29   -0.002982   -0.001150   -0.014165
siesta:     30   -0.006469   -0.000179    0.017824
siesta:     31   -0.001150   -0.002982   -0.014165
siesta:     32   -0.009062   -0.009062    0.046089
siesta:     33    0.009794   -0.001681   -0.008920
siesta:     34   -0.000179   -0.006469    0.017824
siesta:     35   -0.001681    0.009794   -0.008920
siesta:     36   -0.001133   -0.001133    0.033230
siesta:     37   -0.006686   -0.006686   -0.328044
siesta:     38    0.016903   -0.004315   -0.039402
siesta:     39   -0.005389   -0.007312   -0.042068
siesta:     40   -0.004315    0.016903   -0.039402
siesta:     41   -0.061070   -0.061070    0.084445
siesta:     42    0.069278   -0.045669    0.067423
siesta:     43   -0.007312   -0.005389   -0.042068
siesta:     44   -0.045669    0.069278    0.067423
siesta:     45    0.058420    0.058420    0.043833
siesta:     46    0.311766    0.311766    1.333151
siesta:     47   -0.019302    0.022364    1.187157
siesta:     48   -0.277264    0.241593    1.261359
siesta:     49    0.022364   -0.019302    1.187157
siesta:     50    0.000316    0.000316    1.201440
siesta:     51   -0.019814   -0.009472    1.165014
siesta:     52    0.241593   -0.277264    1.261359
siesta:     53   -0.009472   -0.019814    1.165014
siesta:     54   -0.185455   -0.185455    1.370418
siesta:     55    0.332449    0.332449    0.440421
siesta:     56   -0.899776   -0.899776   -0.012974
siesta:     57    0.901778    0.901778   -0.001472
siesta:     58   -0.375746   -0.375746   -0.448357
siesta:     59   -0.280749   -0.280749   -1.338071
siesta:     60    0.257423   -0.218724   -1.253883
siesta:     61    0.012506   -0.016543   -1.174888
siesta:     62   -0.218724    0.257423   -1.253883
siesta:     63    0.170924    0.170924   -1.359968
siesta:     64    0.006267    0.016582   -1.147466
siesta:     65   -0.016543    0.012506   -1.174888
siesta:     66    0.016582    0.006267   -1.147466
siesta:     67   -0.002545   -0.002545   -1.192916
siesta:     68   -0.000178   -0.000178    0.298283
siesta:     69    0.005453    0.013430    0.028120
siesta:     70    0.003843    0.012612    0.041170
siesta:     71    0.013430    0.005453    0.028120
siesta:     72   -0.066695   -0.066695   -0.058536
siesta:     73    0.057920   -0.071943   -0.076602
siesta:     74    0.012612    0.003843    0.041170
siesta:     75   -0.071943    0.057920   -0.076602
siesta:     76    0.065182    0.065182   -0.078980
siesta:     77   -0.008163   -0.008163   -0.030925
siesta:     78    0.005408   -0.000202   -0.017868
siesta:     79    0.003111    0.001104    0.015088
siesta:     80   -0.000202    0.005408   -0.017868
siesta:     81    0.000244    0.000244   -0.032158
siesta:     82    0.001798   -0.010934    0.009623
siesta:     83    0.001104    0.003111    0.015088
siesta:     84   -0.010934    0.001798    0.009623
siesta:     85    0.008850    0.008850   -0.047394
siesta:     86    0.011386    0.011386    0.067722
siesta:     87   -0.001130   -0.004146    0.091963
siesta:     88   -0.012024    0.000394    0.080395
siesta:     89   -0.004146   -0.001130    0.091963
siesta:     90   -0.003877   -0.003877    0.095864
siesta:     91    0.008253    0.003905    0.091022
siesta:     92    0.000394   -0.012024    0.080395
siesta:     93    0.003905    0.008253    0.091022
siesta:     94   -0.003893   -0.003893    0.103344
siesta:     95   -0.001924   -0.001924   -0.032635
siesta:     96   -0.003109    0.003117   -0.036772
siesta:     97    0.004770    0.006221   -0.049545
siesta:     98    0.003117   -0.003109   -0.036772
siesta:     99   -0.006219   -0.006219   -0.047717
siesta:    100    0.003261   -0.011450   -0.058049
siesta:    101    0.006221    0.004770   -0.049545
siesta:    102   -0.011450    0.003261   -0.058049
siesta:    103    0.005405    0.005405   -0.036320
siesta:    104    0.006310    0.006310    0.021173
siesta:    105    0.000531   -0.001419    0.030170
siesta:    106   -0.006278    0.000661    0.030436
siesta:    107   -0.001419    0.000531    0.030170
siesta:    108   -0.010936   -0.010936    0.008115
siesta:    109    0.011818    0.000619    0.023957
siesta:    110    0.000661   -0.006278    0.030436
siesta:    111    0.000619    0.011818    0.023957
siesta:    112   -0.000622   -0.000622    0.005215
siesta: ----------------------------------------
siesta:    Tot   -0.001237   -0.001237    0.208854

ts: Atomic forces (eV/Ang):
ts:      1    0.000000    0.000000    0.000000
ts:      2    0.000000    0.000000    0.000000
ts:      3    0.000000    0.000000    0.000000
ts:      4    0.000000    0.000000    0.000000
ts:      5    0.000000    0.000000    0.000000
ts:      6    0.000000    0.000000    0.000000
ts:      7    0.000000    0.000000    0.000000
ts:      8    0.000000    0.000000    0.000000
ts:      9    0.000000    0.000000    0.000000
ts:     10    0.000000    0.000000    0.000000
ts:     11    0.000000    0.000000    0.000000
ts:     12    0.000000    0.000000    0.000000
ts:     13    0.000000    0.000000    0.000000
ts:     14    0.000000    0.000000    0.000000
ts:     15    0.000000    0.000000    0.000000
ts:     16    0.000000    0.000000    0.000000
ts:     17    0.000000    0.000000    0.000000
ts:     18    0.000000    0.000000    0.000000
ts:     19    0.000000    0.000000    0.000000
ts:     20    0.000000    0.000000    0.000000
ts:     21    0.000000    0.000000    0.000000
ts:     22    0.000000    0.000000    0.000000
ts:     23    0.000000    0.000000    0.000000
ts:     24    0.000000    0.000000    0.000000
ts:     25    0.000000    0.000000    0.000000
ts:     26    0.000000    0.000000    0.000000
ts:     27    0.000000    0.000000    0.000000
ts:     28    0.000000    0.000000    0.000000
ts:     29    0.000000    0.000000    0.000000
ts:     30    0.000000    0.000000    0.000000
ts:     31    0.000000    0.000000    0.000000
ts:     32    0.000000    0.000000    0.000000
ts:     33    0.000000    0.000000    0.000000
ts:     34    0.000000    0.000000    0.000000
ts:     35    0.000000    0.000000    0.000000
ts:     36    0.000000    0.000000    0.000000
ts:     37   -0.006686   -0.006686   -0.328044
ts:     38    0.016903   -0.004315   -0.039402
ts:     39   -0.005389   -0.007312   -0.042068
ts:     40   -0.004315    0.016903   -0.039402
ts:     41   -0.061070   -0.061070    0.084445
ts:     42    0.069278   -0.045669    0.067423
ts:     43   -0.007312   -0.005389   -0.042068
ts:     44   -0.045669    0.069278    0.067423
ts:     45    0.058420    0.058420    0.043833
ts:     46    0.311766    0.311766    1.333151
ts:     47   -0.019302    0.022364    1.187157
ts:     48   -0.277264    0.241593    1.261359
ts:     49    0.022364   -0.019302    1.187157
ts:     50    0.000316    0.000316    1.201440
ts:     51   -0.019814   -0.009472    1.165014
ts:     52    0.241593   -0.277264    1.261359
ts:     53   -0.009472   -0.019814    1.165014
ts:     54   -0.185455   -0.185455    1.370418
ts:     55    0.332449    0.332449    0.440421
ts:     56   -0.899776   -0.899776   -0.012974
ts:     57    0.901778    0.901778   -0.001472
ts:     58   -0.375746   -0.375746   -0.448357
ts:     59   -0.280749   -0.280749   -1.338071
ts:     60    0.257423   -0.218724   -1.253883
ts:     61    0.012506   -0.016543   -1.174888
ts:     62   -0.218724    0.257423   -1.253883
ts:     63    0.170924    0.170924   -1.359968
ts:     64    0.006267    0.016582   -1.147466
ts:     65   -0.016543    0.012506   -1.174888
ts:     66    0.016582    0.006267   -1.147466
ts:     67   -0.002545   -0.002545   -1.192916
ts:     68   -0.000178   -0.000178    0.298283
ts:     69    0.005453    0.013430    0.028120
ts:     70    0.003843    0.012612    0.041170
ts:     71    0.013430    0.005453    0.028120
ts:     72   -0.066695   -0.066695   -0.058536
ts:     73    0.057920   -0.071943   -0.076602
ts:     74    0.012612    0.003843    0.041170
ts:     75   -0.071943    0.057920   -0.076602
ts:     76    0.065182    0.065182   -0.078980
ts:     77    0.000000    0.000000    0.000000
ts:     78    0.000000    0.000000    0.000000
ts:     79    0.000000    0.000000    0.000000
ts:     80    0.000000    0.000000    0.000000
ts:     81    0.000000    0.000000    0.000000
ts:     82    0.000000    0.000000    0.000000
ts:     83    0.000000    0.000000    0.000000
ts:     84    0.000000    0.000000    0.000000
ts:     85    0.000000    0.000000    0.000000
ts:     86    0.000000    0.000000    0.000000
ts:     87    0.000000    0.000000    0.000000
ts:     88    0.000000    0.000000    0.000000
ts:     89    0.000000    0.000000    0.000000
ts:     90    0.000000    0.000000    0.000000
ts:     91    0.000000    0.000000    0.000000
ts:     92    0.000000    0.000000    0.000000
ts:     93    0.000000    0.000000    0.000000
ts:     94    0.000000    0.000000    0.000000
ts:     95    0.000000    0.000000    0.000000
ts:     96    0.000000    0.000000    0.000000
ts:     97    0.000000    0.000000    0.000000
ts:     98    0.000000    0.000000    0.000000
ts:     99    0.000000    0.000000    0.000000
ts:    100    0.000000    0.000000    0.000000
ts:    101    0.000000    0.000000    0.000000
ts:    102    0.000000    0.000000    0.000000
ts:    103    0.000000    0.000000    0.000000
ts:    104    0.000000    0.000000    0.000000
ts:    105    0.000000    0.000000    0.000000
ts:    106    0.000000    0.000000    0.000000
ts:    107    0.000000    0.000000    0.000000
ts:    108    0.000000    0.000000    0.000000
ts:    109    0.000000    0.000000    0.000000
ts:    110    0.000000    0.000000    0.000000
ts:    111    0.000000    0.000000    0.000000
ts:    112    0.000000    0.000000    0.000000
ts: ----------------------------------------
ts:    Tot    0.002359    0.002359   -0.015462

siesta: Stress tensor (static) (eV/Ang**3):
siesta:    -0.091713    0.000662    0.000363
siesta:     0.000662   -0.091713    0.000363
siesta:     0.000361    0.000361   -0.093162

siesta: Cell volume =       2441.783730 Ang**3

siesta: Pressure (static):
siesta:                Solid            Molecule  Units
siesta:           0.00100413          0.00116667  Ry/Bohr**3
siesta:           0.09219591          0.10712000  eV/Ang**3
siesta:         147.71572997        171.62702388  kBar
(Free)E+ p_basis*V_orbitals  =     -160453.004815
(Free)Eharris+ p_basis*V_orbitals  =     -160453.005191
ts-Vha: -0.78291E+00 eV

dhscf: Vacuum level (max, mean) =    2.251565    2.123256 eV

cite: Please see "au_100.bib" for an exhaustive BiBTeX file.
cite: Please clearly indicate Siesta version in published work: v4.1-b4-351
cite: This calculation has made use of the following articles
cite: which are encouraged to be cited in a published work.
        Primary SIESTA paper
          DOI: www.doi.org/10.1088/0953-8984/14/11/302
        Primary TranSiesta paper
          DOI: www.doi.org/10.1103/PhysRevB.65.165401
        TranSiesta N-electrode
          DOI: www.doi.org/10.1016/j.cpc.2016.09.022

>> End of run:  23-JAN-2021   1:12:38
Job completed
[1611360758.767801] [n-62-21-35:11156:0]          mpool.c:42   UCX  WARN  object 0x4106700 was not returned to mpool ucp_requests
[1611360758.768029] [n-62-21-35:11149:0]          mpool.c:42   UCX  WARN  object 0x3de7e40 was not returned to mpool ucp_requests
[1611360758.768470] [n-62-21-35:11152:0]          mpool.c:42   UCX  WARN  object 0x4374380 was not returned to mpool ucp_requests
[1611360758.769484] [n-62-21-35:11158:0]          mpool.c:42   UCX  WARN  object 0x40f5540 was not returned to mpool ucp_requests
