Siesta Version  : v4.1-b4-351
Architecture    : x86_64-linux-n-62-26-19
Compiler version: GNU Fortran (GCC) 9.3.0
Compiler flags  : mpifort -m64 -fPIC -O3 -march=native -ftree-vectorize -fexpensive-optimizatioons -funroll-loops -fprefetch-loop-arrays -fno-second-underscore  -flto
PP flags        : -I/dtu/sw/dcc/SL73/2020-aug/generic/build-tools/1.0/include -I/dtu/sw/dcc/SL773/2020-aug/generic/gcc/9.3.0/include -I/dtu/sw/dcc/SL73/2020-aug/generic/gcc/9.3.0/include -I/dtu/sw/dcc/SL73/2020-aug/XeonE5-2660v3/gnu/9.3.0/zlib/1.2.11/include -I/dtu/sw/dcc/SL73/2020-aug/generic/numactl/2.0.12/include -I/dtu/sw/dcc/SL73/2020-aug/XeonE5-2660v3/gnu/9.3.0/libxml2/2.9.10/include -I/dtu/sw/dcc/SL73/2020-aug/XeonE5-2660v3/gnu/9.3.0/hwloc/2.2.0/include -I/dtu/sw/dcc/SL73/2020-aug/XeonE5-2660v3/gnu/9.3.0/knem/1.1.4/include -I/dtu/sw/dcc/SL73/2020-aug/XeonE5-2660v3/gnu/9.3.0/ucx/1.8.1/include -I/dtu/sw/dcc/SL73/2020-aug/XeonE5-2660v3/gnu/9.3.0/openmpi/4.0.4/include -I/dtu/sw/dcc/SL73/2020-aug/XeonE5-2660v3/gnu/9.3.0/szip/2.1.1/include -I/dtu/sw/dcc/SL73/2020-aug/XeonE5-2660v3/gnu/9.3.0/hdf5/1.12.0/include -I/dtu/sw/dcc/SL73/2020-aug/XeonE5-2660v3/gnu/9.3.0/pnetcdf/1.12.1/include -I/dtu/sw/dcc/SL73/2020-aug/generic/gen-zlib/1.2.11/include -I/dtu/sw/dcc/SL73/2020-aug/generic/openssl/1.1.1/include -I/dtu/sw/dcc/SL73/2020-aug/generic/libssh2/1.8.2/include -I/dtu/sw/dcc/SL73/2020-aug/generic/curl/7.65.1/include -I/dtu/sw/dcc/SL73/2020-aug/XeonE5-2660v3/gnu/9.3.0/netcdf/4.7.4/include -I/dtu/sw/dcc/SL73/2020-aug/XeonE5-2660v3/gnu/9.3.0/flook/0.8.1/include -I/dtu/sw/dcc/SL73/2020-aug/XeonE5-2660v3/gnu/9.3.0/fftw/3.3.8/include -I/dtu/sw/dcc/SL73/2020-aug/XeonE5-2660v3/gnu/9.3.0/parmetis/4.0.3/include -I/dtu/sw/dcc/SL73/2020-aug/XeonE5-2660v3/gnu/9.3.0/scalapack/2.1.0/include -I/dtu/sw/dcc/SL73/2020-aug/XeonE5-2660v3/gnu/9.3.0/lapack/3.9.0/include -I/dtu/sw/dcc/SL73/2020-aug/XeonE5-2660v3/gnu/9.3.0/blis/0.7.0/include -I/dtu/sw/dcc/SL73/2020-aug/XeonE5-2660v3/gnu/9.3.0/scotch/6.0.9/include -I/dtu/sw/dcc/SL73/2020-aug/XeonE5-2660v3/gnu/9.3.0/mumps/5.3.3/include -I/dtu/sw/dcc/SL73/2020-aug/XeonE5-2660v3/gnu/9.3.0/elpa/2020.05.001/include -DSIESTA__ELPA -DMPI -DFC_HAVE_FLUSH -DFC_HAVE_ABORT -DCDF -DCDF4 -DSIESTA__FLOOK  -DNCDF -DNCDF_4 -DNCDF_PARALLEL -DTS_NOCHECKS -DSIESTA__METIS -DSIESTA__MUMPS -DSIESTA__MRRR -I/dtu/sw/dcc/SL73/2020-aug/XeonE5-2660v3/gnu/9.3.0/elpa/2020.05.001/include/elpa
Libraries       : libncdf.a libfdict.a -lnetcdff -lnetcdf -lpnetcdf -lhdf5_hl -lhdf5 -lz  -lzmuumps -lmumps_common -lesmumps -lscotch -lscotcherr -lpord -lparmetis -lmetis -lelpa -lscalapack -llapack -lblis  -L/dtu/sw/dcc/SL73/2020-aug/XeonE5-2660v3/gnu/9.3.0/flook/0.8.1/lib -Wl,-rpath=/dtu/sw/dcc/SL73/2020-aug/XeonE5-2660v3/gnu/9.3.0/flook/0.8.1/lib -lflookall -ldl  -flto -fuse-linker-plugin  -lmetis
PARALLEL version
NetCDF support
NetCDF-4 support
NetCDF-4 MPI-IO support
METIS ordering support
Lua support

* Running on 8 nodes in parallel
>> Start of run:  23-JAN-2021   0:53:57

                           ***********************       
                           *  WELCOME TO SIESTA  *       
                           ***********************       

reinit: Reading from elec_au_100.fdf

reinit: -----------------------------------------------------------------------
reinit: System Name: Au electrode (100
reinit: -----------------------------------------------------------------------
reinit: System Label: elec_au_100
reinit: -----------------------------------------------------------------------

initatom: Reading input for the pseudopotentials and atomic orbitals ----------
Species number:   1 Atomic number:   79 Label: Au

Ground state valence configuration:   6s01  5d10
Reading pseudopotential information in formatted form from Au.psf

Pseudopotential generated from a relativistic atomic calculation

Valence configuration for pseudopotential generation:
6s( 1.00) rc: 2.29
6p( 0.00) rc: 3.14
5d(10.00) rc: 1.20
5f( 0.00) rc: 3.14
For Au, standard SIESTA heuristics set lmxkb to 3
 (one more than the basis l, including polarization orbitals).
Use PS.lmax or PS.KBprojectors blocks to override.
Au: nkbl increased for l=1 due to the presence of a polarization orbital

<basis_specs>
===============================================================================
Au                   Z=  79    Mass=  196.97        Charge= 0.17977+309
Lmxo=2 Lmxkb= 3    BasisType=split      Semic=F
L=0  Nsemic=0  Cnfigmx=6
          i=1  nzeta=1  polorb=1  (6s)
            splnorm:   0.15000    
               vcte:    0.0000    
               rinn:    0.0000    
               qcoe:    0.0000    
               qyuk:    0.0000    
               qwid:   0.10000E-01
                rcs:    0.0000    
            lambdas:    1.0000    
L=1  Nsemic=0  Cnfigmx=6
L=2  Nsemic=0  Cnfigmx=5
          i=1  nzeta=1  polorb=0  (5d)
            splnorm:   0.15000    
               vcte:    0.0000    
               rinn:    0.0000    
               qcoe:    0.0000    
               qyuk:    0.0000    
               qwid:   0.10000E-01
                rcs:    0.0000    
            lambdas:    1.0000    
-------------------------------------------------------------------------------
L=0  Nkbl=1  erefs: 0.17977+309
L=1  Nkbl=2  erefs: 0.17977+309 0.17977+309
L=2  Nkbl=1  erefs: 0.17977+309
L=3  Nkbl=1  erefs: 0.17977+309
===============================================================================
</basis_specs>

atom: Called for Au                    (Z =  79)

read_vps: Pseudopotential generation method:
read_vps: ATM3      Troullier-Martins                       
Valence charge for ps generation:   11.00000

read_vps: Pseudopotential includes a core correction:
read_vps: Pseudo-core for xc-correction

xc_check: Exchange-correlation functional:
xc_check: GGA Perdew, Burke & Ernzerhof 1996
V l=0 = -2*Zval/r beyond r=  2.9833
V l=1 = -2*Zval/r beyond r=  3.1363
V l=2 = -2*Zval/r beyond r=  2.9833
V l=3 = -2*Zval/r beyond r=  3.1363
All V_l potentials equal beyond r=  3.0973
This should be close to max(r_c) in ps generation
All pots = -2*Zval/r beyond r=  3.1363

VLOCAL1: 99.0% of the norm of Vloc inside      4.525 Ry
VLOCAL1: 99.9% of the norm of Vloc inside     10.312 Ry
atom: Maximum radius for 4*pi*r*r*local-pseudopot. charge    3.73611
atom: Maximum radius for r*vlocal+2*Zval:    3.29710
GHOST: No ghost state for L =  0
KBgen: More than one KB projector for l=  1
KBgen: ghost states analysis will be not performed
GHOST: No ghost state for L =  2
GHOST: No ghost state for L =  3

KBgen: Kleinman-Bylander projectors: 
   l= 0   rc=  3.423088   el= -0.421435   Ekb=  5.114239   kbcos=  0.182513
   l= 1   rc=  3.553892   el= -0.058080   Ekb=  1.612319   kbcos=  0.221966
   l= 1   rc=  3.830686   el=  0.001066   Ekb=-27.109983   kbcos= -0.000104
   l= 2   rc=  3.256140   el= -0.508574   Ekb= -6.472599   kbcos= -0.707183
   l= 3   rc=  3.643860   el=  0.003083   Ekb= -1.026026   kbcos= -0.026089

KBgen: Total number of  Kleinman-Bylander projectors:   19
atom: -------------------------------------------------------------------------

atom: SANKEY-TYPE ORBITALS:

SPLIT: Orbitals with angular momentum L= 0

SPLIT: Basis orbitals for state 6s

SPLIT: PAO cut-off radius determined from an
SPLIT: energy shift=  0.005000 Ry

   izeta = 1
                 lambda =    1.000000
                     rc =    7.246712
                 energy =   -0.416422
                kinetic =    0.363232
    potential(screened) =   -0.779654
       potential(ionic) =   -8.332754

SPLIT: Orbitals with angular momentum L= 2

SPLIT: Basis orbitals for state 5d

SPLIT: PAO cut-off radius determined from an
SPLIT: energy shift=  0.005000 Ry

   izeta = 1
                 lambda =    1.000000
                     rc =    5.106662
                 energy =   -0.503595
                kinetic =    4.974612
    potential(screened) =   -5.478207
       potential(ionic) =  -15.919605

POLgen: Perturbative polarization orbital with L=  1

POLgen: Polarization orbital for state 6s

   izeta = 1
                     rc =    7.246712
                 energy =   -0.086468
                kinetic =    0.638528
    potential(screened) =   -0.724996
       potential(ionic) =   -7.799440
atom: Total number of Sankey-type orbitals:  9

atm_pop: Valence configuration (for local Pseudopot. screening):
 6s( 1.00)                                                            
 6p( 0.00)                                                            
 5d(10.00)                                                            
Vna: chval, zval:   11.00000  11.00000

Vna:  Cut-off radius for the neutral-atom potential:   7.246712
comcore: Pseudo-core radius Rcore=  4.027091

atom: _________________________________________________________________________

prinput: Basis input ----------------------------------------------------------

PAO.BasisType split     

%block ChemicalSpeciesLabel
    1   79 Au                      # Species index, atomic number, species label
%endblock ChemicalSpeciesLabel

%block PAO.Basis                 # Define Basis set
Au                    2                    # Species label, number of l-shells
 n=6   0   1 P   1                   # n, l, Nzeta, Polarization, NzetaPol
   7.247   
   1.000   
 n=5   2   1                         # n, l, Nzeta 
   5.107   
   1.000   
%endblock PAO.Basis

prinput: ----------------------------------------------------------------------

Dumping basis to NetCDF file Au.ion.nc
coor:   Atomic-coordinates input format  =     Cartesian coordinates
coor:                                          (in Angstroms)

siesta: WARNING: XV file not found

siesta: Atomic coordinates (Bohr) and species
siesta:      0.00000   0.00000   0.00000  1        1
siesta:      2.72472   2.72472   3.85334  1        2
siesta:      0.00000   0.00000   7.70668  1        3
siesta:      2.72472   2.72472  11.56003  1        4

siesta: System type = bulk      

initatomlists: Number of atoms, orbitals, and projectors:      4    36    76

coxmol: Writing XMOL coordinates into file elec_au_100.xyz                                                     

siesta: ******************** Simulation parameters ****************************
siesta:
siesta: The following are some of the parameters of the simulation.
siesta: A complete list of the parameters used, including default values,
siesta: can be found in file out.fdf
siesta:
redata: Spin configuration                          = none
redata: Number of spin components                   = 1
redata: Time-Reversal Symmetry                      = T
redata: Spin spiral                                 = F
redata: Long output                                 =   F
redata: Number of Atomic Species                    =        1
redata: Charge density info will appear in .RHO file
redata: Write Mulliken Pop.                         = Atomic and Orbital charges
redata: Matel table size (NRTAB)                    =     1024
redata: Mesh Cutoff                                 =   300.0000 Ry
redata: Net charge of the system                    =     0.0000 |e|
redata: Min. number of SCF Iter                     =        0
redata: Max. number of SCF Iter                     =      300
redata: SCF convergence failure will abort job
redata: SCF mix quantity                            = Hamiltonian
redata: Mix DM or H after convergence               =   F
redata: Recompute H after scf cycle                 =   F
redata: Mix DM in first SCF step                    =   T
redata: Write Pulay info on disk                    =   F
redata: New DM Occupancy tolerance                  = 0.000000000001
redata: No kicks to SCF
redata: DM Mixing Weight for Kicks                  =     0.5000
redata: Require Harris convergence for SCF          =   F
redata: Harris energy tolerance for SCF             =     0.000100 eV
redata: Require DM convergence for SCF              =   T
redata: DM tolerance for SCF                        =     0.000100
redata: Require EDM convergence for SCF             =   F
redata: EDM tolerance for SCF                       =     0.001000 eV
redata: Require H convergence for SCF               =   T
redata: Hamiltonian tolerance for SCF               =     0.001000 eV
redata: Require (free) Energy convergence for SCF   =   F
redata: (free) Energy tolerance for SCF             =     0.000100 eV
redata: Using Saved Data (generic)                  =   F
redata: Use continuation files for DM               =   T
redata: Neglect nonoverlap interactions             =   F
redata: Method of Calculation                       = Diagonalization
redata: Electronic Temperature                      =   299.9869 K
redata: Fix the spin of the system                  =   F
redata: Dynamics option                             = Single-point calculation
mix.SCF: Pulay mixing                            = Pulay
mix.SCF:    Variant                              = stable
mix.SCF:    History steps                        = 5
mix.SCF:    Linear mixing weight                 =     0.050000
mix.SCF:    Mixing weight                        =     0.050000
mix.SCF:    SVD condition                        = 0.1000E-07
redata: Save all siesta data in one NC              =   F
redata: ***********************************************************************

%block SCF.Mixers
  Pulay
%endblock SCF.Mixers

%block SCF.Mixer.Pulay
  # Mixing method
  method pulay
  variant stable

  # Mixing options
  weight 0.0500
  weight.linear 0.0500
  history 5
%endblock SCF.Mixer.Pulay

DM_history_depth set to one: no extrapolation allowed by default for geometry relaxation
Size of DM history Fstack: 1
Total number of electrons:    44.000000
Total ionic charge:    44.000000

* ProcessorY, Blocksize:    2   4


* Orbital distribution balance (max,min):     8     4

k-point displ. along   1 input, could be:     0.00    0.50
k-point displ. along   2 input, could be:     0.00    0.50
k-point displ. along   3 input, could be:     0.00    0.50
 Kpoints in:          216 . Kpoints trimmed:          204

siesta: k-grid: Number of k-points =   204
siesta: k-grid: Cutoff (effective) =     8.651 Ang
siesta: k-grid: Supercell and displacements
siesta: k-grid:    6   0   0      0.000
siesta: k-grid:    0   6   0      0.000
siesta: k-grid:    0   0  10      0.000

diag: Algorithm                                     = D&C
diag: Parallel over k                               =   F
diag: Use parallel 2D distribution                  =   T
diag: Parallel block-size                           = 4
diag: Parallel distribution                         =     2 x     4
diag: Used triangular part                          = Lower
diag: Absolute tolerance                            =  0.100E-15
diag: Orthogonalization factor                      =  0.100E-05
diag: Memory factor                                 =  1.0000

superc: Internal auxiliary supercell:     9 x     9 x     3  =     243
superc: Number of atoms, orbitals, and projectors:    972   8748  18468


ts: **************************************************************
ts: Save H and S matrices                           =    T
ts: Save DM and EDM matrices                        =    T
ts: Only save the overlap matrix S                  =    F
ts: **************************************************************

************************ Begin: TS CHECKS AND WARNINGS ************************
************************ End: TS CHECKS AND WARNINGS **************************


                     ====================================
                        Single-point calculation
                     ====================================

superc: Internal auxiliary supercell:     9 x     9 x     3  =     243
superc: Number of atoms, orbitals, and projectors:    972   8748  18468

outcell: Unit cell vectors (Ang):
        2.883720    0.000000    0.000000
        0.000000    2.883720    0.000000
        0.000000    0.000000    8.156400

outcell: Cell vector modules (Ang)   :    2.883720    2.883720    8.156400
outcell: Cell angles (23,13,12) (deg):     90.0000     90.0000     90.0000
outcell: Cell volume (Ang**3)        :     67.8273
<dSpData1D:S at geom step 0
  <sparsity:sparsity for geom step 0
    nrows_g=36 nrows=8 sparsity=10.7099 nnzs=13880, refcount: 7>
  <dData1D:(new from dSpData1D) n=13880, refcount: 1>
refcount: 1>
new_DM -- step:     1
Initializing Density Matrix...

Attempting to read DM from file... Failed...
DM filled with atomic data:
<dSpData2D:DM initialized from atoms
  <sparsity:sparsity for geom step 0
    nrows_g=36 nrows=8 sparsity=10.7099 nnzs=13880, refcount: 8>
  <dData2D:DM n=13880 m=1, refcount: 1>
refcount: 1>
No. of atoms with KB's overlaping orbs in proc 0. Max # of overlaps:      94     315
New grid distribution:   1
           1       1:   16    1:    8    1:   12
           2       1:   16    1:    8   13:   23
           3       1:   16    1:    8   24:   34
           4       1:   16    1:    8   35:   45
           5       1:   16    9:   16    1:   12
           6       1:   16    9:   16   13:   23
           7       1:   16    9:   16   24:   34
           8       1:   16    9:   16   35:   45

InitMesh: MESH =    32 x    32 x    90 =       92160
InitMesh: (bp) =    16 x    16 x    45 =       11520
InitMesh: Mesh cutoff (required, used) =   300.000   336.504 Ry
ExtMesh (bp) on 0 =   104 x    96 x   100 =      998400
New grid distribution:   2
           1       1:   16    1:    8    1:   11
           2       1:   16    1:    8   12:   22
           3       1:   16    1:    8   23:   34
           4       1:   16    1:    8   35:   45
           5       1:   16    9:   16    1:   11
           6       1:   16    9:   16   12:   22
           7       1:   16    9:   16   23:   34
           8       1:   16    9:   16   35:   45
New grid distribution:   3
           1       1:   16    1:    8    1:   12
           2       1:   16    9:   16   13:   23
           3       1:   16    1:    8   13:   23
           4       1:   16    1:    8   35:   45
           5       1:   16    9:   16    1:   12
           6       1:   16    1:    8   24:   34
           7       1:   16    9:   16   24:   34
           8       1:   16    9:   16   35:   45
Setting up quadratic distribution...
ExtMesh (bp) on 0 =   104 x    96 x    99 =      988416
PhiOnMesh: Number of (b)points on node 0 =                 1408
PhiOnMesh: nlist on node 0 =               119647

stepf: Fermi-Dirac step function

siesta: Program's energy decomposition (eV):
siesta: Ebs     =      -340.416595
siesta: Eions   =      3801.028149
siesta: Ena     =        13.426793
siesta: Ekin    =      2559.588845
siesta: Enl     =     -1648.326503
siesta: Eso     =         0.000000
siesta: Edftu   =         0.000000
siesta: DEna    =         5.184764
siesta: DUscf   =         3.096478
siesta: DUext   =         0.000000
siesta: Exc     =     -2864.786063
siesta: eta*DQ  =         0.000000
siesta: Emadel  =         0.000000
siesta: Emeta   =         0.000000
siesta: Emolmec =         0.000000
siesta: Ekinion =         0.000000
siesta: Eharris =     -5727.653500
siesta: Etot    =     -5732.843837
siesta: FreeEng =     -5732.848218

        iscf     Eharris(eV)        E_KS(eV)     FreeEng(eV)     dDmax    Ef(eV) dHmax(eV)
   scf:    1    -5727.653500    -5732.843837    -5732.848218  0.244444 -1.804298  1.839448
timer: Routine,Calls,Time,% = IterSCF        1       2.950  66.63
   scf:    2    -5733.061230    -5732.953215    -5732.957419  0.005437 -1.882058  1.704551
   scf:    3    -5734.041249    -5733.596226    -5733.599834  0.062049 -2.802928  0.022840
   scf:    4    -5733.592765    -5733.594764    -5733.598372  0.003174 -2.852694  0.074827
   scf:    5    -5733.597338    -5733.596210    -5733.599819  0.002176 -2.824345  0.011693
   scf:    6    -5733.596249    -5733.596240    -5733.599849  0.000559 -2.815950  0.005736
   scf:    7    -5733.596214    -5733.596232    -5733.599841  0.000419 -2.822377  0.007261
   scf:    8    -5733.596255    -5733.596246    -5733.599855  0.000238 -2.818923  0.000155
   scf:    9    -5733.596246    -5733.596246    -5733.599855  0.000006 -2.818980  0.000001

SCF Convergence by DM+H criterion
max |DM_out - DM_in|         :     0.0000057710
max |H_out - H_in|      (eV) :     0.0000014999
SCF cycle converged after 9 iterations

Using DM_out to compute the final energy and forces
No. of atoms with KB's overlaping orbs in proc 0. Max # of overlaps:      94     315

siesta: E_KS(eV) =            -5733.5962

siesta: E_KS - E_eggbox =     -5733.5962

siesta: Atomic forces (eV/Ang):
----------------------------------------
   Tot    0.000000   -0.000000   -0.000000
----------------------------------------
   Max    0.000000
   Res    0.000000    sqrt( Sum f_i^2 / 3N )
----------------------------------------
   Max    0.000000    constrained

Stress tensor Voigt[x,y,z,yz,xz,xy] (kbar):     -235.21     -235.21     -217.75        0.00       -0.00        0.00
(Free)E + p*V (eV/cell)    -5723.8888
Target enthalpy (eV/cell)    -5733.5999

mulliken: Atomic and Orbital Populations:

Species: Au                  
Atom  Qatom  Qorb
               6s      5dxy    5dyz    5dz2    5dxz    5dx2-y2 6Ppy    6Ppz    
               6Ppx    
   1 11.000   0.981   1.932   1.889   1.939   1.889   1.894   0.158   0.161
              0.158
   2 11.000   0.981   1.932   1.889   1.939   1.889   1.894   0.158   0.161
              0.158
   3 11.000   0.981   1.932   1.889   1.939   1.889   1.894   0.158   0.161
              0.158
   4 11.000   0.981   1.932   1.889   1.939   1.889   1.894   0.158   0.161
              0.158

mulliken: Qtot =       44.000

coxmol: Writing XMOL coordinates into file elec_au_100.xyz                                                     

siesta: Eigenvalues (eV):
  ik is       eps
   1  1   -9.8992   -9.3825   -9.3660   -9.1156   -8.8073   -8.8072   -8.3265   -8.3265   -8.2087   -8.2087
          -7.0204   -6.4888   -6.4887   -5.9258   -5.8787   -5.7023   -5.6979   -5.6680   -5.6680   -5.3519
   -4.6509   -1.6545   -1.6544    1.6782    3.7071    6.3202    6.3665    6.3665    6.8197    6.8198
    8.3307   12.0876   12.0909   14.4332   14.9847   14.9848
   2  1  -10.1501   -9.6673   -9.6673   -8.8837   -8.7811   -8.3790   -8.2200   -8.0235   -8.0234   -7.4781
          -7.2710   -7.2709   -7.2411   -7.2409   -6.5245   -6.3120   -6.2766   -5.7617   -5.7617   -5.3098
   -4.9822   -3.1953   -3.1951    0.6912    4.3935    4.3935    4.6734    5.7695   10.5517   13.2820
   13.2820   13.6976   13.9265   17.8546   17.8548   20.0482
   3  1  -10.5059  -10.1972  -10.1971   -9.2005   -8.4158   -8.3328   -7.8108   -7.8105   -7.5566   -7.5458
          -7.5457   -7.4557   -7.0095   -6.7949   -6.6554   -6.6553   -6.3421   -5.4517   -5.2420   -5.0976
   -5.0974   -4.4855   -4.4853   -0.0656    3.7101    3.7102    4.1411    6.0267   13.8678   14.1981
   14.3160   17.0343   17.0343   18.4464   18.4466   20.9938
   4  1  -10.1501   -9.6673   -9.6673   -8.8837   -8.7811   -8.3790   -8.2200   -8.0235   -8.0234   -7.4781
          -7.2710   -7.2709   -7.2411   -7.2409   -6.5245   -6.3120   -6.2766   -5.7617   -5.7617   -5.3098
   -4.9822   -3.1953   -3.1951    0.6912    4.3935    4.3935    4.6734    5.7695   10.5517   13.2820
   13.2820   13.6976   13.9265   17.8546   17.8548   20.0482
   5  1   -9.8992   -9.3825   -9.3660   -9.1156   -8.8073   -8.8072   -8.3265   -8.3265   -8.2087   -8.2087
          -7.0204   -6.4888   -6.4887   -5.9258   -5.8787   -5.7023   -5.6979   -5.6680   -5.6680   -5.3519
   -4.6509   -1.6545   -1.6544    1.6782    3.7071    6.3202    6.3665    6.3665    6.8197    6.8198
    8.3307   12.0876   12.0909   14.4332   14.9847   14.9848
   6  1   -9.7910   -9.7909   -9.5345   -9.5345   -8.8248   -8.8248   -8.7311   -8.7311   -7.8295   -7.8294
          -6.4747   -6.4747   -6.1054   -6.1054   -5.2596   -5.2592   -5.0763   -5.0763   -4.9678   -4.9678
   -2.3578   -2.3577    0.9592    0.9593    1.6207    1.6207    7.2359    7.2360    9.0102    9.0106
    9.5176    9.5176    9.9302    9.9302   11.4102   11.4103
   7  1  -10.1501   -9.6673   -9.6673   -8.8837   -8.7811   -8.3790   -8.2200   -8.0235   -8.0234   -7.4781
          -7.2710   -7.2709   -7.2411   -7.2409   -6.5245   -6.3120   -6.2766   -5.7617   -5.7617   -5.3098
   -4.9822   -3.1953   -3.1951    0.6912    4.3935    4.3935    4.6734    5.7695   10.5517   13.2820
   13.2820   13.6976   13.9265   17.8546   17.8548   20.0482
   8  1  -11.4141   -9.6170   -9.6169   -9.3821   -9.1111   -8.5399   -8.5398   -8.3385   -7.8320   -7.8317
          -7.1888   -7.1837   -7.0243   -6.8107   -6.5872   -6.5871   -6.4844   -6.4844   -5.9444   -5.9251
   -4.6508   -4.3240   -4.3238    1.6760    3.7068    6.3219    8.3296   10.9476   10.9477   11.3174
   11.3174   18.6152   18.6170   19.3016   19.3018   22.3179
   9  1  -11.9335  -10.0890  -10.0889   -9.7662   -9.4091   -8.5214   -8.5213   -7.9721   -7.6151   -7.6148
          -7.5556   -7.5112   -6.9499   -6.9499   -6.4323   -6.1465   -6.0429   -5.5408   -5.5406   -5.5000
   -5.3927   -5.3926   -4.8666    0.4535    3.5093    6.6231   10.3013   10.3013   10.4759   15.7792
   15.7792   19.7402   19.7404   20.1910   20.3167   22.3275
  10  1  -11.4141   -9.6170   -9.6169   -9.3821   -9.1111   -8.5399   -8.5398   -8.3385   -7.8320   -7.8317
          -7.1888   -7.1837   -7.0243   -6.8107   -6.5872   -6.5871   -6.4844   -6.4844   -5.9444   -5.9251
   -4.6508   -4.3240   -4.3238    1.6760    3.7068    6.3219    8.3296   10.9476   10.9477   11.3174
   11.3174   18.6152   18.6170   19.3016   19.3018   22.3179
  11  1  -10.1501   -9.6673   -9.6673   -8.8837   -8.7811   -8.3790   -8.2200   -8.0235   -8.0234   -7.4781
          -7.2710   -7.2709   -7.2411   -7.2409   -6.5245   -6.3120   -6.2766   -5.7617   -5.7617   -5.3098
   -4.9822   -3.1953   -3.1951    0.6912    4.3935    4.3935    4.6734    5.7695   10.5517   13.2820
   13.2820   13.6976   13.9265   17.8546   17.8548   20.0482
  12  1   -9.8619   -9.8619   -9.0322   -9.0321   -8.8226   -8.8226   -8.1065   -8.1064   -8.0467   -8.0467
          -7.3865   -7.3863   -6.5769   -6.5769   -6.0455   -6.0454   -5.7167   -5.7167   -5.0651   -5.0649
   -2.9746   -2.9746   -1.5239   -1.5238    0.3480    0.3481    8.3953    8.3954    8.7837    8.7840
   15.1904   15.1905   15.5637   15.5637   16.0072   16.0074
  13  1  -10.5059  -10.1972  -10.1971   -9.2005   -8.4158   -8.3328   -7.8108   -7.8105   -7.5566   -7.5458
          -7.5457   -7.4557   -7.0095   -6.7949   -6.6554   -6.6553   -6.3421   -5.4517   -5.2420   -5.0976
   -5.0974   -4.4855   -4.4853   -0.0656    3.7101    3.7102    4.1411    6.0267   13.8678   14.1981
   14.3160   17.0343   17.0343   18.4464   18.4466   20.9938
  14  1  -11.9335  -10.0890  -10.0889   -9.7662   -9.4091   -8.5214   -8.5213   -7.9721   -7.6151   -7.6148
          -7.5556   -7.5112   -6.9499   -6.9499   -6.4323   -6.1465   -6.0429   -5.5408   -5.5406   -5.5000
   -5.3927   -5.3926   -4.8666    0.4535    3.5093    6.6231   10.3013   10.3013   10.4759   15.7792
   15.7792   19.7402   19.7404   20.1910   20.3167   22.3275
  15  1  -12.4732  -10.3664  -10.3663  -10.0893   -9.8140   -8.8693   -8.8693   -7.7515   -7.7515   -7.7461
          -6.9820   -6.9819   -6.5193   -6.5193   -6.5193   -6.5193   -6.2181   -6.2167   -5.6550   -5.6549
   -5.0283   -4.6520   -4.6520   -1.6483    4.2792    9.1091    9.1091   15.1902   15.1902   15.1902
   15.1902   20.0993   20.0994   22.5616   22.5625   22.5625
  16  1  -10.3558  -10.3558   -9.1237   -9.1237   -8.3047   -8.3047   -7.9096   -7.9095   -7.7914   -7.7913
          -7.7907   -7.7905   -6.8368   -6.8368   -6.2407   -6.2407   -4.9865   -4.9864   -4.9857   -4.9854
   -3.7529   -3.7529   -3.1691   -3.1690    0.3404    0.3406    8.4992    8.4993    8.6617    8.6620
   17.7153   17.7153   17.7162   17.7164   17.8972   17.8972
  17  1   -9.8619   -9.8619   -9.0322   -9.0321   -8.8226   -8.8226   -8.1065   -8.1064   -8.0467   -8.0467
          -7.3865   -7.3863   -6.5769   -6.5769   -6.0455   -6.0454   -5.7167   -5.7167   -5.0651   -5.0649
   -2.9746   -2.9746   -1.5239   -1.5238    0.3480    0.3481    8.3953    8.3954    8.7837    8.7840
   15.1904   15.1905   15.5637   15.5637   16.0072   16.0074
  18  1   -9.7910   -9.7909   -9.5345   -9.5345   -8.8248   -8.8248   -8.7311   -8.7311   -7.8295   -7.8294
          -6.4747   -6.4747   -6.1054   -6.1054   -5.2596   -5.2592   -5.0763   -5.0763   -4.9678   -4.9678
   -2.3578   -2.3577    0.9592    0.9593    1.6207    1.6207    7.2359    7.2360    9.0102    9.0106
    9.5176    9.5176    9.9302    9.9302   11.4102   11.4103
  19  1   -9.7910   -9.7909   -9.5345   -9.5345   -8.8248   -8.8248   -8.7311   -8.7311   -7.8295   -7.8294
          -6.4747   -6.4747   -6.1054   -6.1054   -5.2596   -5.2592   -5.0763   -5.0763   -4.9678   -4.9678
   -2.3578   -2.3577    0.9592    0.9593    1.6207    1.6207    7.2359    7.2360    9.0102    9.0106
    9.5176    9.5176    9.9302    9.9302   11.4102   11.4103
  20  1   -9.8619   -9.8619   -9.0322   -9.0321   -8.8226   -8.8226   -8.1065   -8.1064   -8.0467   -8.0467
          -7.3865   -7.3863   -6.5769   -6.5769   -6.0455   -6.0454   -5.7167   -5.7167   -5.0651   -5.0649
   -2.9746   -2.9746   -1.5239   -1.5238    0.3480    0.3481    8.3953    8.3954    8.7837    8.7840
   15.1904   15.1905   15.5637   15.5637   16.0072   16.0074
  21  1  -10.3558  -10.3558   -9.1237   -9.1237   -8.3047   -8.3047   -7.9096   -7.9095   -7.7914   -7.7913
          -7.7907   -7.7905   -6.8368   -6.8368   -6.2407   -6.2407   -4.9865   -4.9864   -4.9857   -4.9854
   -3.7529   -3.7529   -3.1691   -3.1690    0.3404    0.3406    8.4992    8.4993    8.6617    8.6620
   17.7153   17.7153   17.7162   17.7164   17.8972   17.8972
  22  1   -9.8619   -9.8619   -9.0322   -9.0321   -8.8226   -8.8226   -8.1065   -8.1064   -8.0467   -8.0467
          -7.3865   -7.3863   -6.5769   -6.5769   -6.0455   -6.0454   -5.7167   -5.7167   -5.0651   -5.0649
   -2.9746   -2.9746   -1.5239   -1.5238    0.3480    0.3481    8.3953    8.3954    8.7837    8.7840
   15.1904   15.1905   15.5637   15.5637   16.0072   16.0074
  23  1   -9.7910   -9.7909   -9.5345   -9.5345   -8.8248   -8.8248   -8.7311   -8.7311   -7.8295   -7.8294
          -6.4747   -6.4747   -6.1054   -6.1054   -5.2596   -5.2592   -5.0763   -5.0763   -4.9678   -4.9678
   -2.3578   -2.3577    0.9592    0.9593    1.6207    1.6207    7.2359    7.2360    9.0102    9.0106
    9.5176    9.5176    9.9302    9.9302   11.4102   11.4103
  24  1  -10.0902  -10.0900   -9.8189   -9.8189   -9.0400   -9.0400   -8.2358   -8.2358   -8.2358   -8.2358
          -6.3409   -6.3409   -5.0301   -5.0296   -4.6521   -4.6521   -4.6483   -4.6483   -4.6467   -4.6467
   -1.6463   -1.6463    3.5319    3.5320    4.0162    4.0162    4.0163    4.0163    4.2793    4.2794
    8.1447    8.1449    9.1082    9.1086    9.1123    9.1123
  25  1   -9.8772   -9.3852   -9.3534   -9.0902   -8.9492   -8.6814   -8.4256   -8.4079   -8.2644   -8.0045
          -7.0302   -6.5169   -6.3936   -6.1842   -5.9344   -5.6987   -5.6924   -5.6283   -5.5060   -5.2468
   -4.6849   -2.0581   -1.2281    1.7480    3.5198    5.6685    6.1753    6.5063    7.0824    7.2053
    8.7239   11.9048   11.9858   14.5199   14.7997   15.0960
  26  1  -10.1445   -9.7562   -9.5681   -8.8696   -8.7575   -8.4727   -8.1312   -8.1027   -7.9645   -7.4913
          -7.3883   -7.2969   -7.2311   -7.1471   -6.6387   -6.3266   -6.1297   -5.8218   -5.6471   -5.3208
   -4.9923   -3.5965   -2.7441    0.7333    3.7615    3.8732    5.0898    6.6458   10.6062   12.7114
   12.8133   13.8585   14.6723   17.2787   18.2987   20.0154
  27  1  -10.5093  -10.2996  -10.0778   -9.2105   -8.4204   -8.2910   -7.9042   -7.7305   -7.5925   -7.5399
          -7.4745   -7.4567   -7.0963   -6.7809   -6.6928   -6.5589   -6.3881   -5.4132   -5.2542   -5.2181
   -5.0191   -5.0089   -3.8623   -0.0217    3.0448    3.4597    4.4414    6.8138   13.0013   13.9005
   15.4421   16.4756   17.6132   17.8726   18.7925   20.9426
  28  1  -10.1445   -9.7562   -9.5681   -8.8696   -8.7575   -8.4727   -8.1312   -8.1027   -7.9645   -7.4913
          -7.3883   -7.2969   -7.2311   -7.1471   -6.6387   -6.3266   -6.1297   -5.8218   -5.6471   -5.3208
   -4.9923   -3.5965   -2.7441    0.7333    3.7615    3.8732    5.0898    6.6458   10.6062   12.7114
   12.8133   13.8585   14.6723   17.2787   18.2987   20.0154
  29  1   -9.8772   -9.3852   -9.3534   -9.0902   -8.9492   -8.6814   -8.4256   -8.4079   -8.2644   -8.0045
          -7.0302   -6.5169   -6.3936   -6.1842   -5.9344   -5.6987   -5.6924   -5.6283   -5.5060   -5.2468
   -4.6849   -2.0581   -1.2281    1.7480    3.5198    5.6685    6.1753    6.5063    7.0824    7.2053
    8.7239   11.9048   11.9858   14.5199   14.7997   15.0960
  30  1   -9.7836   -9.7835   -9.5104   -9.5104   -8.9545   -8.9544   -8.6467   -8.6467   -7.8058   -7.8058
          -6.4397   -6.4397   -6.1282   -6.1282   -5.3763   -5.3761   -5.0676   -5.0676   -4.9095   -4.9094
   -2.2817   -2.2816    0.7193    0.7193    1.8831    1.8831    6.9707    6.9708    9.0201    9.0204
    9.4971    9.4971   10.1393   10.1393   11.4366   11.4367
  31  1  -10.1445   -9.7562   -9.5681   -8.8696   -8.7575   -8.4727   -8.1312   -8.1027   -7.9645   -7.4913
          -7.3883   -7.2969   -7.2311   -7.1471   -6.6387   -6.3266   -6.1297   -5.8218   -5.6471   -5.3208
   -4.9923   -3.5965   -2.7441    0.7333    3.7615    3.8732    5.0898    6.6458   10.6062   12.7114
   12.8133   13.8585   14.6723   17.2787   18.2987   20.0154
  32  1  -11.3917   -9.8887   -9.3689   -9.3631   -9.1039   -8.6235   -8.4621   -8.3347   -7.9731   -7.6838
          -7.2168   -7.1843   -7.0700   -6.7768   -6.7180   -6.6762   -6.4245   -6.2698   -5.9416   -5.9086
   -4.6822   -4.6278   -3.9850    1.2064    4.2170    6.3847    8.4651   10.0918   10.4970   11.8735
   12.1812   18.3625   18.4788   18.4815   19.9929   22.2852
  33  1  -11.9104  -10.3528   -9.8669   -9.7585   -9.3981   -8.6440   -8.4028   -7.9668   -7.6245   -7.5519
          -7.5507   -7.5137   -7.0829   -6.8012   -6.4173   -6.1595   -6.0831   -5.8764   -5.5362   -5.5354
   -5.2568   -5.1376   -4.8580    0.1235    3.8408    6.8310    9.3945   10.5365   11.2747   14.8864
   16.7025   18.6494   19.5920   20.5103   20.7525   22.2364
  34  1  -11.3917   -9.8887   -9.3689   -9.3631   -9.1039   -8.6235   -8.4621   -8.3347   -7.9731   -7.6838
          -7.2168   -7.1843   -7.0700   -6.7768   -6.7180   -6.6762   -6.4245   -6.2698   -5.9416   -5.9086
   -4.6822   -4.6278   -3.9850    1.2064    4.2170    6.3847    8.4651   10.0918   10.4970   11.8735
   12.1812   18.3625   18.4788   18.4815   19.9929   22.2852
  35  1  -10.1445   -9.7562   -9.5681   -8.8696   -8.7575   -8.4727   -8.1312   -8.1027   -7.9645   -7.4913
          -7.3883   -7.2969   -7.2311   -7.1471   -6.6387   -6.3266   -6.1297   -5.8218   -5.6471   -5.3208
   -4.9923   -3.5965   -2.7441    0.7333    3.7615    3.8732    5.0898    6.6458   10.6062   12.7114
   12.8133   13.8585   14.6723   17.2787   18.2987   20.0154
  36  1   -9.8525   -9.8525   -9.1269   -9.1268   -8.7203   -8.7203   -8.1094   -8.1094   -8.0290   -8.0290
          -7.3723   -7.3721   -6.6337   -6.6336   -6.1785   -6.1783   -5.5891   -5.5891   -5.0433   -5.0431
   -2.9579   -2.9579   -1.6117   -1.6116    0.5039    0.5040    7.3224    7.3226    9.8836    9.8838
   15.1989   15.1990   15.5527   15.5527   15.9596   15.9598
  37  1  -10.5093  -10.2996  -10.0778   -9.2105   -8.4204   -8.2910   -7.9042   -7.7305   -7.5925   -7.5399
          -7.4745   -7.4567   -7.0963   -6.7809   -6.6928   -6.5589   -6.3881   -5.4132   -5.2542   -5.2181
   -5.0191   -5.0089   -3.8623   -0.0217    3.0448    3.4597    4.4414    6.8138   13.0013   13.9005
   15.4421   16.4756   17.6132   17.8726   18.7925   20.9426
  38  1  -11.9104  -10.3528   -9.8669   -9.7585   -9.3981   -8.6440   -8.4028   -7.9668   -7.6245   -7.5519
          -7.5507   -7.5137   -7.0829   -6.8012   -6.4173   -6.1595   -6.0831   -5.8764   -5.5362   -5.5354
   -5.2568   -5.1376   -4.8580    0.1235    3.8408    6.8310    9.3945   10.5365   11.2747   14.8864
   16.7025   18.6494   19.5920   20.5103   20.7525   22.2364
  39  1  -12.4487  -10.6661  -10.1270  -10.0811   -9.8033   -9.0276   -8.7066   -7.7612   -7.7387   -7.7387
          -7.0120   -6.8280   -6.7422   -6.7422   -6.2823   -6.2823   -6.2350   -6.2101   -5.7468   -5.5615
   -5.0365   -4.6819   -4.6819   -1.8957    4.6744    9.1830    9.1830   14.1938   14.1938   16.2183
   16.2183   18.7361   21.1128   22.4573   22.4573   22.5653
  40  1  -11.9104  -10.3528   -9.8669   -9.7585   -9.3981   -8.6440   -8.4028   -7.9668   -7.6245   -7.5519
          -7.5507   -7.5137   -7.0829   -6.8012   -6.4173   -6.1595   -6.0831   -5.8764   -5.5362   -5.5354
   -5.2568   -5.1376   -4.8580    0.1235    3.8408    6.8310    9.3945   10.5365   11.2747   14.8864
   16.7025   18.6494   19.5920   20.5103   20.7525   22.2364
  41  1  -10.5093  -10.2996  -10.0778   -9.2105   -8.4204   -8.2910   -7.9042   -7.7305   -7.5925   -7.5399
          -7.4745   -7.4567   -7.0963   -6.7809   -6.6928   -6.5589   -6.3881   -5.4132   -5.2542   -5.2181
   -5.0191   -5.0089   -3.8623   -0.0217    3.0448    3.4597    4.4414    6.8138   13.0013   13.9005
   15.4421   16.4756   17.6132   17.8726   18.7925   20.9426
  42  1  -10.3397  -10.3397   -9.2111   -9.2110   -8.2292   -8.2292   -7.8630   -7.8629   -7.7979   -7.7976
          -7.7781   -7.7780   -6.9002   -6.9002   -6.1701   -6.1701   -5.1131   -5.1129   -5.0073   -5.0072
   -3.6814   -3.6813   -3.1706   -3.1706    0.4450    0.4452    7.2179    7.2180    9.9997   10.0000
   17.6340   17.6342   17.7200   17.7201   17.8930   17.8930
  43  1  -10.1445   -9.7562   -9.5681   -8.8696   -8.7575   -8.4727   -8.1312   -8.1027   -7.9645   -7.4913
          -7.3883   -7.2969   -7.2311   -7.1471   -6.6387   -6.3266   -6.1297   -5.8218   -5.6471   -5.3208
   -4.9923   -3.5965   -2.7441    0.7333    3.7615    3.8732    5.0898    6.6458   10.6062   12.7114
   12.8133   13.8585   14.6723   17.2787   18.2987   20.0154
  44  1  -11.3917   -9.8887   -9.3689   -9.3631   -9.1039   -8.6235   -8.4621   -8.3347   -7.9731   -7.6838
          -7.2168   -7.1843   -7.0700   -6.7768   -6.7180   -6.6762   -6.4245   -6.2698   -5.9416   -5.9086
   -4.6822   -4.6278   -3.9850    1.2064    4.2170    6.3847    8.4651   10.0918   10.4970   11.8735
   12.1812   18.3625   18.4788   18.4815   19.9929   22.2852
  45  1  -11.9104  -10.3528   -9.8669   -9.7585   -9.3981   -8.6440   -8.4028   -7.9668   -7.6245   -7.5519
          -7.5507   -7.5137   -7.0829   -6.8012   -6.4173   -6.1595   -6.0831   -5.8764   -5.5362   -5.5354
   -5.2568   -5.1376   -4.8580    0.1235    3.8408    6.8310    9.3945   10.5365   11.2747   14.8864
   16.7025   18.6494   19.5920   20.5103   20.7525   22.2364
  46  1  -11.3917   -9.8887   -9.3689   -9.3631   -9.1039   -8.6235   -8.4621   -8.3347   -7.9731   -7.6838
          -7.2168   -7.1843   -7.0700   -6.7768   -6.7180   -6.6762   -6.4245   -6.2698   -5.9416   -5.9086
   -4.6822   -4.6278   -3.9850    1.2064    4.2170    6.3847    8.4651   10.0918   10.4970   11.8735
   12.1812   18.3625   18.4788   18.4815   19.9929   22.2852
  47  1  -10.1445   -9.7562   -9.5681   -8.8696   -8.7575   -8.4727   -8.1312   -8.1027   -7.9645   -7.4913
          -7.3883   -7.2969   -7.2311   -7.1471   -6.6387   -6.3266   -6.1297   -5.8218   -5.6471   -5.3208
   -4.9923   -3.5965   -2.7441    0.7333    3.7615    3.8732    5.0898    6.6458   10.6062   12.7114
   12.8133   13.8585   14.6723   17.2787   18.2987   20.0154
  48  1   -9.8525   -9.8525   -9.1269   -9.1268   -8.7203   -8.7203   -8.1094   -8.1094   -8.0290   -8.0290
          -7.3723   -7.3721   -6.6337   -6.6336   -6.1785   -6.1783   -5.5891   -5.5891   -5.0433   -5.0431
   -2.9579   -2.9579   -1.6117   -1.6116    0.5039    0.5040    7.3224    7.3226    9.8836    9.8838
   15.1989   15.1990   15.5527   15.5527   15.9596   15.9598
  49  1   -9.8772   -9.3852   -9.3534   -9.0902   -8.9492   -8.6814   -8.4256   -8.4079   -8.2644   -8.0045
          -7.0302   -6.5169   -6.3936   -6.1842   -5.9344   -5.6987   -5.6924   -5.6283   -5.5060   -5.2468
   -4.6849   -2.0581   -1.2281    1.7480    3.5198    5.6685    6.1753    6.5063    7.0824    7.2053
    8.7239   11.9048   11.9858   14.5199   14.7997   15.0960
  50  1  -10.1445   -9.7562   -9.5681   -8.8696   -8.7575   -8.4727   -8.1312   -8.1027   -7.9645   -7.4913
          -7.3883   -7.2969   -7.2311   -7.1471   -6.6387   -6.3266   -6.1297   -5.8218   -5.6471   -5.3208
   -4.9923   -3.5965   -2.7441    0.7333    3.7615    3.8732    5.0898    6.6458   10.6062   12.7114
   12.8133   13.8585   14.6723   17.2787   18.2987   20.0154
  51  1  -10.5093  -10.2996  -10.0778   -9.2105   -8.4204   -8.2910   -7.9042   -7.7305   -7.5925   -7.5399
          -7.4745   -7.4567   -7.0963   -6.7809   -6.6928   -6.5589   -6.3881   -5.4132   -5.2542   -5.2181
   -5.0191   -5.0089   -3.8623   -0.0217    3.0448    3.4597    4.4414    6.8138   13.0013   13.9005
   15.4421   16.4756   17.6132   17.8726   18.7925   20.9426
  52  1  -10.1445   -9.7562   -9.5681   -8.8696   -8.7575   -8.4727   -8.1312   -8.1027   -7.9645   -7.4913
          -7.3883   -7.2969   -7.2311   -7.1471   -6.6387   -6.3266   -6.1297   -5.8218   -5.6471   -5.3208
   -4.9923   -3.5965   -2.7441    0.7333    3.7615    3.8732    5.0898    6.6458   10.6062   12.7114
   12.8133   13.8585   14.6723   17.2787   18.2987   20.0154
  53  1   -9.8772   -9.3852   -9.3534   -9.0902   -8.9492   -8.6814   -8.4256   -8.4079   -8.2644   -8.0045
          -7.0302   -6.5169   -6.3936   -6.1842   -5.9344   -5.6987   -5.6924   -5.6283   -5.5060   -5.2468
   -4.6849   -2.0581   -1.2281    1.7480    3.5198    5.6685    6.1753    6.5063    7.0824    7.2053
    8.7239   11.9048   11.9858   14.5199   14.7997   15.0960
  54  1   -9.7836   -9.7835   -9.5104   -9.5104   -8.9545   -8.9544   -8.6467   -8.6467   -7.8058   -7.8058
          -6.4397   -6.4397   -6.1282   -6.1282   -5.3763   -5.3761   -5.0676   -5.0676   -4.9095   -4.9094
   -2.2817   -2.2816    0.7193    0.7193    1.8831    1.8831    6.9707    6.9708    9.0201    9.0204
    9.4971    9.4971   10.1393   10.1393   11.4366   11.4367
  55  1   -9.7836   -9.7835   -9.5104   -9.5104   -8.9545   -8.9544   -8.6467   -8.6467   -7.8058   -7.8058
          -6.4397   -6.4397   -6.1282   -6.1282   -5.3763   -5.3761   -5.0676   -5.0676   -4.9095   -4.9094
   -2.2817   -2.2816    0.7193    0.7193    1.8831    1.8831    6.9707    6.9708    9.0201    9.0204
    9.4971    9.4971   10.1393   10.1393   11.4366   11.4367
  56  1   -9.8525   -9.8525   -9.1269   -9.1268   -8.7203   -8.7203   -8.1094   -8.1094   -8.0290   -8.0290
          -7.3723   -7.3721   -6.6337   -6.6336   -6.1785   -6.1783   -5.5891   -5.5891   -5.0433   -5.0431
   -2.9579   -2.9579   -1.6117   -1.6116    0.5039    0.5040    7.3224    7.3226    9.8836    9.8838
   15.1989   15.1990   15.5527   15.5527   15.9596   15.9598
  57  1  -10.3397  -10.3397   -9.2111   -9.2110   -8.2292   -8.2292   -7.8630   -7.8629   -7.7979   -7.7976
          -7.7781   -7.7780   -6.9002   -6.9002   -6.1701   -6.1701   -5.1131   -5.1129   -5.0073   -5.0072
   -3.6814   -3.6813   -3.1706   -3.1706    0.4450    0.4452    7.2179    7.2180    9.9997   10.0000
   17.6340   17.6342   17.7200   17.7201   17.8930   17.8930
  58  1   -9.8525   -9.8525   -9.1269   -9.1268   -8.7203   -8.7203   -8.1094   -8.1094   -8.0290   -8.0290
          -7.3723   -7.3721   -6.6337   -6.6336   -6.1785   -6.1783   -5.5891   -5.5891   -5.0433   -5.0431
   -2.9579   -2.9579   -1.6117   -1.6116    0.5039    0.5040    7.3224    7.3226    9.8836    9.8838
   15.1989   15.1990   15.5527   15.5527   15.9596   15.9598
  59  1   -9.7836   -9.7835   -9.5104   -9.5104   -8.9545   -8.9544   -8.6467   -8.6467   -7.8058   -7.8058
          -6.4397   -6.4397   -6.1282   -6.1282   -5.3763   -5.3761   -5.0676   -5.0676   -4.9095   -4.9094
   -2.2817   -2.2816    0.7193    0.7193    1.8831    1.8831    6.9707    6.9708    9.0201    9.0204
    9.4971    9.4971   10.1393   10.1393   11.4366   11.4367
  60  1  -10.0712  -10.0711   -9.8031   -9.8031   -9.0781   -9.0781   -8.5363   -8.5363   -7.9050   -7.9050
          -6.2956   -6.2956   -5.0546   -5.0541   -4.7669   -4.7669   -4.6482   -4.6482   -4.6467   -4.6467
   -1.5095   -1.5095    3.3087    3.3087    3.5486    3.5487    4.2597    4.2598    4.7216    4.7216
    8.1615    8.1616    9.0300    9.0300    9.0754    9.0758
  61  1   -9.8119   -9.3871   -9.3157   -9.0728   -9.0206   -8.7561   -8.5961   -8.3469   -8.2853   -7.8031
          -7.0604   -6.5601   -6.4732   -6.2553   -5.9608   -5.7060   -5.7008   -5.5686   -5.5023   -4.8869
   -4.7800   -2.4516   -0.7646    1.9512    3.0210    4.9941    5.9746    6.2599    7.6656    7.8103
    9.5968   11.4387   11.6837   14.5035   14.7090   15.1595
  62  1  -10.1280   -9.8354   -9.4583   -8.8279   -8.6875   -8.6192   -8.2033   -7.9990   -7.9190   -7.5623
          -7.5300   -7.3569   -7.2067   -7.0403   -6.7915   -6.3705   -5.8810   -5.8163   -5.5096   -5.3526
   -5.0204   -3.9643   -2.2270    0.8510    2.7923    3.1901    5.8537    7.9327   10.7900   11.7499
   12.1631   14.4202   15.3179   16.5238   18.6571   19.9242
  63  1  -10.5175  -10.3830   -9.9452   -9.2439   -8.4261   -8.1689   -8.0077   -7.6650   -7.6139   -7.4937
          -7.4595   -7.3800   -7.2272   -6.9103   -6.5519   -6.5164   -6.5044   -5.4104   -5.3661   -5.3196
   -5.2901   -4.9556   -3.1689    0.1086    2.3631    2.4404    5.2447    8.2189   11.7274   13.9988
   15.9516   16.5007   17.0329   18.1958   18.9575   20.7904
  64  1  -10.1280   -9.8354   -9.4583   -8.8279   -8.6875   -8.6192   -8.2033   -7.9990   -7.9190   -7.5623
          -7.5300   -7.3569   -7.2067   -7.0403   -6.7915   -6.3705   -5.8810   -5.8163   -5.5096   -5.3526
   -5.0204   -3.9643   -2.2270    0.8510    2.7923    3.1901    5.8537    7.9327   10.7900   11.7499
   12.1631   14.4202   15.3179   16.5238   18.6571   19.9242
  65  1   -9.8119   -9.3871   -9.3157   -9.0728   -9.0206   -8.7561   -8.5961   -8.3469   -8.2853   -7.8031
          -7.0604   -6.5601   -6.4732   -6.2553   -5.9608   -5.7060   -5.7008   -5.5686   -5.5023   -4.8869
   -4.7800   -2.4516   -0.7646    1.9512    3.0210    4.9941    5.9746    6.2599    7.6656    7.8103
    9.5968   11.4387   11.6837   14.5035   14.7090   15.1595
  66  1   -9.7590   -9.7589   -9.4411   -9.4411   -9.1258   -9.1258   -8.6291   -8.6291   -7.7020   -7.7020
          -6.3498   -6.3498   -6.2091   -6.2091   -5.5857   -5.5854   -5.0418   -5.0417   -4.8470   -4.8469
   -2.0695   -2.0694    0.3133    0.3133    2.3580    2.3580    6.3608    6.3609    9.0462    9.0463
    9.4421    9.4422   10.5797   10.5798   11.5022   11.5023
  67  1  -10.1280   -9.8354   -9.4583   -8.8279   -8.6875   -8.6192   -8.2033   -7.9990   -7.9190   -7.5623
          -7.5300   -7.3569   -7.2067   -7.0403   -6.7915   -6.3705   -5.8810   -5.8163   -5.5096   -5.3526
   -5.0204   -3.9643   -2.2270    0.8510    2.7923    3.1901    5.8537    7.9327   10.7900   11.7499
   12.1631   14.4202   15.3179   16.5238   18.6571   19.9242
  68  1  -11.3251  -10.1611   -9.3301   -9.1571   -9.0824   -8.7087   -8.3951   -8.3242   -8.0705   -7.5577
          -7.2751   -7.1941   -7.1847   -6.8398   -6.7958   -6.7083   -6.2521   -6.0385   -5.9252   -5.8721
   -4.9062   -4.7735   -3.5974    0.3615    5.1422    6.5703    8.9095    9.3138    9.7259   12.8526
   13.0810   17.1547   18.0869   18.0906   20.4955   22.1843
  69  1  -11.8418  -10.6313   -9.7364   -9.7117   -9.3652   -8.7709   -8.2888   -7.9548   -7.5485   -7.5403
          -7.5176   -7.4711   -7.1986   -6.6389   -6.3733   -6.2003   -6.1968   -6.1369   -5.6829   -5.6315
   -5.1335   -4.8414   -4.6696   -0.5847    4.5089    7.4929    8.5546   10.7175   12.3108   14.0420
   17.2427   17.6353   18.7783   21.0008   21.0928   21.9673
  70  1  -11.3251  -10.1611   -9.3301   -9.1571   -9.0824   -8.7087   -8.3951   -8.3242   -8.0705   -7.5577
          -7.2751   -7.1941   -7.1847   -6.8398   -6.7958   -6.7083   -6.2521   -6.0385   -5.9252   -5.8721
   -4.9062   -4.7735   -3.5974    0.3615    5.1422    6.5703    8.9095    9.3138    9.7259   12.8526
   13.0810   17.1547   18.0869   18.0906   20.4955   22.1843
  71  1  -10.1280   -9.8354   -9.4583   -8.8279   -8.6875   -8.6192   -8.2033   -7.9990   -7.9190   -7.5623
          -7.5300   -7.3569   -7.2067   -7.0403   -6.7915   -6.3705   -5.8810   -5.8163   -5.5096   -5.3526
   -5.0204   -3.9643   -2.2270    0.8510    2.7923    3.1901    5.8537    7.9327   10.7900   11.7499
   12.1631   14.4202   15.3179   16.5238   18.6571   19.9242
  72  1   -9.8243   -9.8243   -9.2702   -9.2701   -8.5599   -8.5599   -8.1196   -8.1195   -7.9712   -7.9712
          -7.3284   -7.3283   -6.7861   -6.7860   -6.3976   -6.3975   -5.3882   -5.3881   -4.9944   -4.9943
   -2.9065   -2.9065   -1.8179   -1.8178    0.9144    0.9145    6.1335    6.1336   11.1414   11.1416
   15.2238   15.2239   15.5193   15.5193   15.8052   15.8053
  73  1  -10.5175  -10.3830   -9.9452   -9.2439   -8.4261   -8.1689   -8.0077   -7.6650   -7.6139   -7.4937
          -7.4595   -7.3800   -7.2272   -6.9103   -6.5519   -6.5164   -6.5044   -5.4104   -5.3661   -5.3196
   -5.2901   -4.9556   -3.1689    0.1086    2.3631    2.4404    5.2447    8.2189   11.7274   13.9988
   15.9516   16.5007   17.0329   18.1958   18.9575   20.7904
  74  1  -11.8418  -10.6313   -9.7364   -9.7117   -9.3652   -8.7709   -8.2888   -7.9548   -7.5485   -7.5403
          -7.5176   -7.4711   -7.1986   -6.6389   -6.3733   -6.2003   -6.1968   -6.1369   -5.6829   -5.6315
   -5.1335   -4.8414   -4.6696   -0.5847    4.5089    7.4929    8.5546   10.7175   12.3108   14.0420
   17.2427   17.6353   18.7783   21.0008   21.0928   21.9673
  75  1  -12.3754  -10.9910  -10.0574   -9.9735   -9.7713   -9.1780   -8.5436   -7.8060   -7.7004   -7.7004
          -6.9574   -6.9474   -6.9474   -6.5221   -6.2848   -6.1905   -6.0356   -6.0356   -5.8349   -5.4688
   -5.0607   -4.7694   -4.7694   -2.5017    5.7222    9.4023    9.4023   13.2470   13.2470   17.0487
   17.2571   17.2571   21.8010   22.1472   22.1472   22.5749
  76  1  -11.8418  -10.6313   -9.7364   -9.7117   -9.3652   -8.7709   -8.2888   -7.9548   -7.5485   -7.5403
          -7.5176   -7.4711   -7.1986   -6.6389   -6.3733   -6.2003   -6.1968   -6.1369   -5.6829   -5.6315
   -5.1335   -4.8414   -4.6696   -0.5847    4.5089    7.4929    8.5546   10.7175   12.3108   14.0420
   17.2427   17.6353   18.7783   21.0008   21.0928   21.9673
  77  1  -10.5175  -10.3830   -9.9452   -9.2439   -8.4261   -8.1689   -8.0077   -7.6650   -7.6139   -7.4937
          -7.4595   -7.3800   -7.2272   -6.9103   -6.5519   -6.5164   -6.5044   -5.4104   -5.3661   -5.3196
   -5.2901   -4.9556   -3.1689    0.1086    2.3631    2.4404    5.2447    8.2189   11.7274   13.9988
   15.9516   16.5007   17.0329   18.1958   18.9575   20.7904
  78  1  -10.2917  -10.2916   -9.3970   -9.3970   -8.1146   -8.1146   -7.8185   -7.8183   -7.7385   -7.7384
          -7.6885   -7.6884   -7.0373   -7.0373   -6.0123   -6.0123   -5.4188   -5.4186   -5.0688   -5.0686
   -3.5377   -3.5377   -3.1759   -3.1759    0.7542    0.7543    5.9412    5.9414   11.4334   11.4337
   17.3752   17.3753   17.7337   17.7338   17.8809   17.8809
  79  1  -10.1280   -9.8354   -9.4583   -8.8279   -8.6875   -8.6192   -8.2033   -7.9990   -7.9190   -7.5623
          -7.5300   -7.3569   -7.2067   -7.0403   -6.7915   -6.3705   -5.8810   -5.8163   -5.5096   -5.3526
   -5.0204   -3.9643   -2.2270    0.8510    2.7923    3.1901    5.8537    7.9327   10.7900   11.7499
   12.1631   14.4202   15.3179   16.5238   18.6571   19.9242
  80  1  -11.3251  -10.1611   -9.3301   -9.1571   -9.0824   -8.7087   -8.3951   -8.3242   -8.0705   -7.5577
          -7.2751   -7.1941   -7.1847   -6.8398   -6.7958   -6.7083   -6.2521   -6.0385   -5.9252   -5.8721
   -4.9062   -4.7735   -3.5974    0.3615    5.1422    6.5703    8.9095    9.3138    9.7259   12.8526
   13.0810   17.1547   18.0869   18.0906   20.4955   22.1843
  81  1  -11.8418  -10.6313   -9.7364   -9.7117   -9.3652   -8.7709   -8.2888   -7.9548   -7.5485   -7.5403
          -7.5176   -7.4711   -7.1986   -6.6389   -6.3733   -6.2003   -6.1968   -6.1369   -5.6829   -5.6315
   -5.1335   -4.8414   -4.6696   -0.5847    4.5089    7.4929    8.5546   10.7175   12.3108   14.0420
   17.2427   17.6353   18.7783   21.0008   21.0928   21.9673
  82  1  -11.3251  -10.1611   -9.3301   -9.1571   -9.0824   -8.7087   -8.3951   -8.3242   -8.0705   -7.5577
          -7.2751   -7.1941   -7.1847   -6.8398   -6.7958   -6.7083   -6.2521   -6.0385   -5.9252   -5.8721
   -4.9062   -4.7735   -3.5974    0.3615    5.1422    6.5703    8.9095    9.3138    9.7259   12.8526
   13.0810   17.1547   18.0869   18.0906   20.4955   22.1843
  83  1  -10.1280   -9.8354   -9.4583   -8.8279   -8.6875   -8.6192   -8.2033   -7.9990   -7.9190   -7.5623
          -7.5300   -7.3569   -7.2067   -7.0403   -6.7915   -6.3705   -5.8810   -5.8163   -5.5096   -5.3526
   -5.0204   -3.9643   -2.2270    0.8510    2.7923    3.1901    5.8537    7.9327   10.7900   11.7499
   12.1631   14.4202   15.3179   16.5238   18.6571   19.9242
  84  1   -9.8243   -9.8243   -9.2702   -9.2701   -8.5599   -8.5599   -8.1196   -8.1195   -7.9712   -7.9712
          -7.3284   -7.3283   -6.7861   -6.7860   -6.3976   -6.3975   -5.3882   -5.3881   -4.9944   -4.9943
   -2.9065   -2.9065   -1.8179   -1.8178    0.9144    0.9145    6.1335    6.1336   11.1414   11.1416
   15.2238   15.2239   15.5193   15.5193   15.8052   15.8053
  85  1   -9.8119   -9.3871   -9.3157   -9.0728   -9.0206   -8.7561   -8.5961   -8.3469   -8.2853   -7.8031
          -7.0604   -6.5601   -6.4732   -6.2553   -5.9608   -5.7060   -5.7008   -5.5686   -5.5023   -4.8869
   -4.7800   -2.4516   -0.7646    1.9512    3.0210    4.9941    5.9746    6.2599    7.6656    7.8103
    9.5968   11.4387   11.6837   14.5035   14.7090   15.1595
  86  1  -10.1280   -9.8354   -9.4583   -8.8279   -8.6875   -8.6192   -8.2033   -7.9990   -7.9190   -7.5623
          -7.5300   -7.3569   -7.2067   -7.0403   -6.7915   -6.3705   -5.8810   -5.8163   -5.5096   -5.3526
   -5.0204   -3.9643   -2.2270    0.8510    2.7923    3.1901    5.8537    7.9327   10.7900   11.7499
   12.1631   14.4202   15.3179   16.5238   18.6571   19.9242
  87  1  -10.5175  -10.3830   -9.9452   -9.2439   -8.4261   -8.1689   -8.0077   -7.6650   -7.6139   -7.4937
          -7.4595   -7.3800   -7.2272   -6.9103   -6.5519   -6.5164   -6.5044   -5.4104   -5.3661   -5.3196
   -5.2901   -4.9556   -3.1689    0.1086    2.3631    2.4404    5.2447    8.2189   11.7274   13.9988
   15.9516   16.5007   17.0329   18.1958   18.9575   20.7904
  88  1  -10.1280   -9.8354   -9.4583   -8.8279   -8.6875   -8.6192   -8.2033   -7.9990   -7.9190   -7.5623
          -7.5300   -7.3569   -7.2067   -7.0403   -6.7915   -6.3705   -5.8810   -5.8163   -5.5096   -5.3526
   -5.0204   -3.9643   -2.2270    0.8510    2.7923    3.1901    5.8537    7.9327   10.7900   11.7499
   12.1631   14.4202   15.3179   16.5238   18.6571   19.9242
  89  1   -9.8119   -9.3871   -9.3157   -9.0728   -9.0206   -8.7561   -8.5961   -8.3469   -8.2853   -7.8031
          -7.0604   -6.5601   -6.4732   -6.2553   -5.9608   -5.7060   -5.7008   -5.5686   -5.5023   -4.8869
   -4.7800   -2.4516   -0.7646    1.9512    3.0210    4.9941    5.9746    6.2599    7.6656    7.8103
    9.5968   11.4387   11.6837   14.5035   14.7090   15.1595
  90  1   -9.7590   -9.7589   -9.4411   -9.4411   -9.1258   -9.1258   -8.6291   -8.6291   -7.7020   -7.7020
          -6.3498   -6.3498   -6.2091   -6.2091   -5.5857   -5.5854   -5.0418   -5.0417   -4.8470   -4.8469
   -2.0695   -2.0694    0.3133    0.3133    2.3580    2.3580    6.3608    6.3609    9.0462    9.0463
    9.4421    9.4422   10.5797   10.5798   11.5022   11.5023
  91  1   -9.7590   -9.7589   -9.4411   -9.4411   -9.1258   -9.1258   -8.6291   -8.6291   -7.7020   -7.7020
          -6.3498   -6.3498   -6.2091   -6.2091   -5.5857   -5.5854   -5.0418   -5.0417   -4.8470   -4.8469
   -2.0695   -2.0694    0.3133    0.3133    2.3580    2.3580    6.3608    6.3609    9.0462    9.0463
    9.4421    9.4422   10.5797   10.5798   11.5022   11.5023
  92  1   -9.8243   -9.8243   -9.2702   -9.2701   -8.5599   -8.5599   -8.1196   -8.1195   -7.9712   -7.9712
          -7.3284   -7.3283   -6.7861   -6.7860   -6.3976   -6.3975   -5.3882   -5.3881   -4.9944   -4.9943
   -2.9065   -2.9065   -1.8179   -1.8178    0.9144    0.9145    6.1335    6.1336   11.1414   11.1416
   15.2238   15.2239   15.5193   15.5193   15.8052   15.8053
  93  1  -10.2917  -10.2916   -9.3970   -9.3970   -8.1146   -8.1146   -7.8185   -7.8183   -7.7385   -7.7384
          -7.6885   -7.6884   -7.0373   -7.0373   -6.0123   -6.0123   -5.4188   -5.4186   -5.0688   -5.0686
   -3.5377   -3.5377   -3.1759   -3.1759    0.7542    0.7543    5.9412    5.9414   11.4334   11.4337
   17.3752   17.3753   17.7337   17.7338   17.8809   17.8809
  94  1   -9.8243   -9.8243   -9.2702   -9.2701   -8.5599   -8.5599   -8.1196   -8.1195   -7.9712   -7.9712
          -7.3284   -7.3283   -6.7861   -6.7860   -6.3976   -6.3975   -5.3882   -5.3881   -4.9944   -4.9943
   -2.9065   -2.9065   -1.8179   -1.8178    0.9144    0.9145    6.1335    6.1336   11.1414   11.1416
   15.2238   15.2239   15.5193   15.5193   15.8052   15.8053
  95  1   -9.7590   -9.7589   -9.4411   -9.4411   -9.1258   -9.1258   -8.6291   -8.6291   -7.7020   -7.7020
          -6.3498   -6.3498   -6.2091   -6.2091   -5.5857   -5.5854   -5.0418   -5.0417   -4.8470   -4.8469
   -2.0695   -2.0694    0.3133    0.3133    2.3580    2.3580    6.3608    6.3609    9.0462    9.0463
    9.4421    9.4422   10.5797   10.5798   11.5022   11.5023
  96  1  -10.0151  -10.0150   -9.7557   -9.7557   -9.1821   -9.1821   -8.8056   -8.8056   -7.5452   -7.5452
          -6.1709   -6.1709   -5.1270   -5.1266   -5.0621   -5.0621   -4.6481   -4.6481   -4.6469   -4.6468
   -1.1487   -1.1487    2.6041    2.6041    3.5975    3.5976    4.2033    4.2033    5.4190    5.4190
    8.2116    8.2117    8.7913    8.7913    8.9837    8.9840
  97  1   -9.7050   -9.3792   -9.2532   -9.1747   -8.9595   -8.9180   -8.7688   -8.3756   -8.1318   -7.6136
          -7.1137   -6.9232   -6.3798   -6.0986   -6.0066   -5.7119   -5.7040   -5.5696   -5.4840   -4.9180
   -4.4766   -2.8445   -0.2508    2.2719    2.3554    4.3500    5.8664    6.0747    8.1996    8.5429
   10.6290   10.8212   11.2193   14.0566   14.9002   15.1882
  98  1  -10.1013   -9.9054   -9.3380   -8.7760   -8.7557   -8.5730   -8.3193   -7.8895   -7.8693   -7.7569
          -7.5901   -7.4367   -7.1734   -6.9209   -6.9148   -6.4435   -5.7602   -5.6132   -5.3938   -5.3785
   -5.0624   -4.3110   -1.6314    0.9806    1.8385    2.6763    6.6875    9.1644   10.6621   11.1937
   11.6475   14.9409   15.5659   15.7101   18.9607   19.7912
  99  1  -10.5252  -10.4466   -9.8040   -9.3072   -8.4158   -8.1155   -7.9768   -7.6147   -7.6098   -7.4621
          -7.4260   -7.3471   -7.2639   -7.0334   -6.7163   -6.6557   -6.3224   -5.5838   -5.5361   -5.3480
   -5.2073   -4.9395   -2.4109    0.3198    1.2802    1.8942    6.1265    9.7866   10.4743   14.1630
   15.4741   15.9200   17.3885   18.7639   18.9736   20.5412
 100  1  -10.1013   -9.9054   -9.3380   -8.7760   -8.7557   -8.5730   -8.3193   -7.8895   -7.8693   -7.7569
          -7.5901   -7.4367   -7.1734   -6.9209   -6.9148   -6.4435   -5.7602   -5.6132   -5.3938   -5.3785
   -5.0624   -4.3110   -1.6314    0.9806    1.8385    2.6763    6.6875    9.1644   10.6621   11.1937
   11.6475   14.9409   15.5659   15.7101   18.9607   19.7912
 101  1   -9.7050   -9.3792   -9.2532   -9.1747   -8.9595   -8.9180   -8.7688   -8.3756   -8.1318   -7.6136
          -7.1137   -6.9232   -6.3798   -6.0986   -6.0066   -5.7119   -5.7040   -5.5696   -5.4840   -4.9180
   -4.4766   -2.8445   -0.2508    2.2719    2.3554    4.3500    5.8664    6.0747    8.1996    8.5429
   10.6290   10.8212   11.2193   14.0566   14.9002   15.1882
 102  1   -9.7131   -9.7130   -9.3335   -9.3334   -9.2870   -9.2870   -8.7197   -8.7196   -7.4989   -7.4989
          -6.3779   -6.3779   -6.2355   -6.2354   -5.7717   -5.7716   -5.0008   -5.0007   -4.8300   -4.8299
   -1.7576   -1.7575   -0.1152   -0.1152    2.9059    2.9060    5.6326    5.6327    9.0868    9.0868
    9.3672    9.3672   11.0173   11.0174   11.5714   11.5715
 103  1  -10.1013   -9.9054   -9.3380   -8.7760   -8.7557   -8.5730   -8.3193   -7.8895   -7.8693   -7.7569
          -7.5901   -7.4367   -7.1734   -6.9209   -6.9148   -6.4435   -5.7602   -5.6132   -5.3938   -5.3785
   -5.0624   -4.3110   -1.6314    0.9806    1.8385    2.6763    6.6875    9.1644   10.6621   11.1937
   11.6475   14.9409   15.5659   15.7101   18.9607   19.7912
 104  1  -11.2159  -10.4227   -9.2683   -9.0471   -9.0433   -8.7916   -8.3435   -8.3106   -8.0751   -7.4749
          -7.3701   -7.3328   -7.1807   -6.9709   -6.8063   -6.6565   -6.0921   -5.8737   -5.8416   -5.7975
   -5.1632   -4.9174   -3.1450   -0.4944    6.0238    6.8713    8.6121    9.0105    9.7436   13.8595
   14.0062   15.7111   17.4820   17.4858   20.8808   22.0130
 105  1  -11.7292  -10.9040   -9.7031   -9.6314   -9.3103   -8.8995   -8.1819   -7.9485   -7.5192   -7.5125
          -7.4149   -7.3815   -7.2965   -6.4662   -6.3839   -6.3084   -6.3025   -6.2532   -5.8280   -5.7687
   -5.0272   -4.8331   -4.1367   -1.3774    5.1747    7.7801    8.6320   11.0158   13.2617   13.4005
   15.5787   17.8287   18.5534   21.2789   21.3049   21.5314
 106  1  -11.2159  -10.4227   -9.2683   -9.0471   -9.0433   -8.7916   -8.3435   -8.3106   -8.0751   -7.4749
          -7.3701   -7.3328   -7.1807   -6.9709   -6.8063   -6.6565   -6.0921   -5.8737   -5.8416   -5.7975
   -5.1632   -4.9174   -3.1450   -0.4944    6.0238    6.8713    8.6121    9.0105    9.7436   13.8595
   14.0062   15.7111   17.4820   17.4858   20.8808   22.0130
 107  1  -10.1013   -9.9054   -9.3380   -8.7760   -8.7557   -8.5730   -8.3193   -7.8895   -7.8693   -7.7569
          -7.5901   -7.4367   -7.1734   -6.9209   -6.9148   -6.4435   -5.7602   -5.6132   -5.3938   -5.3785
   -5.0624   -4.3110   -1.6314    0.9806    1.8385    2.6763    6.6875    9.1644   10.6621   11.1937
   11.6475   14.9409   15.5659   15.7101   18.9607   19.7912
 108  1   -9.7773   -9.7773   -9.4055   -9.4055   -8.4141   -8.4141   -8.1402   -8.1402   -7.8612   -7.8612
          -7.2526   -7.2525   -6.9975   -6.9974   -6.6167   -6.6166   -5.2051   -5.2050   -4.9505   -4.9503
   -2.8168   -2.8167   -2.0615   -2.0615    1.4991    1.4992    5.0150    5.0152   12.3377   12.3379
   15.2635   15.2635   15.4308   15.4309   15.5463   15.5464
 109  1  -10.5252  -10.4466   -9.8040   -9.3072   -8.4158   -8.1155   -7.9768   -7.6147   -7.6098   -7.4621
          -7.4260   -7.3471   -7.2639   -7.0334   -6.7163   -6.6557   -6.3224   -5.5838   -5.5361   -5.3480
   -5.2073   -4.9395   -2.4109    0.3198    1.2802    1.8942    6.1265    9.7866   10.4743   14.1630
   15.4741   15.9200   17.3885   18.7639   18.9736   20.5412
 110  1  -11.7292  -10.9040   -9.7031   -9.6314   -9.3103   -8.8995   -8.1819   -7.9485   -7.5192   -7.5125
          -7.4149   -7.3815   -7.2965   -6.4662   -6.3839   -6.3084   -6.3025   -6.2532   -5.8280   -5.7687
   -5.0272   -4.8331   -4.1367   -1.3774    5.1747    7.7801    8.6320   11.0158   13.2617   13.4005
   15.5787   17.8287   18.5534   21.2789   21.3049   21.5314
 111  1  -12.2534  -11.3113  -10.0204   -9.9051   -9.7183   -9.3175   -8.3846   -7.8788   -7.6366   -7.6366
          -7.1321   -7.1321   -6.8533   -6.3648   -6.1583   -6.0641   -5.9173   -5.7853   -5.7853   -5.3792
   -5.1001   -4.9083   -4.9083   -3.2572    7.2061    9.7604    9.7604   12.3653   12.3653   15.1139
   18.2821   18.2821   21.6470   21.6470   22.2229   22.5857
 112  1  -11.7292  -10.9040   -9.7031   -9.6314   -9.3103   -8.8995   -8.1819   -7.9485   -7.5192   -7.5125
          -7.4149   -7.3815   -7.2965   -6.4662   -6.3839   -6.3084   -6.3025   -6.2532   -5.8280   -5.7687
   -5.0272   -4.8331   -4.1367   -1.3774    5.1747    7.7801    8.6320   11.0158   13.2617   13.4005
   15.5787   17.8287   18.5534   21.2789   21.3049   21.5314
 113  1  -10.5252  -10.4466   -9.8040   -9.3072   -8.4158   -8.1155   -7.9768   -7.6147   -7.6098   -7.4621
          -7.4260   -7.3471   -7.2639   -7.0334   -6.7163   -6.6557   -6.3224   -5.5838   -5.5361   -5.3480
   -5.2073   -4.9395   -2.4109    0.3198    1.2802    1.8942    6.1265    9.7866   10.4743   14.1630
   15.4741   15.9200   17.3885   18.7639   18.9736   20.5412
 114  1  -10.2119  -10.2119   -9.6007   -9.6007   -8.0421   -8.0419   -7.8508   -7.8505   -7.6731   -7.6730
          -7.3892   -7.3891   -7.1907   -7.1907   -5.8263   -5.8263   -5.8028   -5.8026   -5.1679   -5.1677
   -3.4049   -3.4049   -3.1872   -3.1872    1.2540    1.2542    4.7623    4.7625   12.8337   12.8339
   16.9106   16.9106   17.7548   17.7548   17.8617   17.8617
 115  1  -10.1013   -9.9054   -9.3380   -8.7760   -8.7557   -8.5730   -8.3193   -7.8895   -7.8693   -7.7569
          -7.5901   -7.4367   -7.1734   -6.9209   -6.9148   -6.4435   -5.7602   -5.6132   -5.3938   -5.3785
   -5.0624   -4.3110   -1.6314    0.9806    1.8385    2.6763    6.6875    9.1644   10.6621   11.1937
   11.6475   14.9409   15.5659   15.7101   18.9607   19.7912
 116  1  -11.2159  -10.4227   -9.2683   -9.0471   -9.0433   -8.7916   -8.3435   -8.3106   -8.0751   -7.4749
          -7.3701   -7.3328   -7.1807   -6.9709   -6.8063   -6.6565   -6.0921   -5.8737   -5.8416   -5.7975
   -5.1632   -4.9174   -3.1450   -0.4944    6.0238    6.8713    8.6121    9.0105    9.7436   13.8595
   14.0062   15.7111   17.4820   17.4858   20.8808   22.0130
 117  1  -11.7292  -10.9040   -9.7031   -9.6314   -9.3103   -8.8995   -8.1819   -7.9485   -7.5192   -7.5125
          -7.4149   -7.3815   -7.2965   -6.4662   -6.3839   -6.3084   -6.3025   -6.2532   -5.8280   -5.7687
   -5.0272   -4.8331   -4.1367   -1.3774    5.1747    7.7801    8.6320   11.0158   13.2617   13.4005
   15.5787   17.8287   18.5534   21.2789   21.3049   21.5314
 118  1  -11.2159  -10.4227   -9.2683   -9.0471   -9.0433   -8.7916   -8.3435   -8.3106   -8.0751   -7.4749
          -7.3701   -7.3328   -7.1807   -6.9709   -6.8063   -6.6565   -6.0921   -5.8737   -5.8416   -5.7975
   -5.1632   -4.9174   -3.1450   -0.4944    6.0238    6.8713    8.6121    9.0105    9.7436   13.8595
   14.0062   15.7111   17.4820   17.4858   20.8808   22.0130
 119  1  -10.1013   -9.9054   -9.3380   -8.7760   -8.7557   -8.5730   -8.3193   -7.8895   -7.8693   -7.7569
          -7.5901   -7.4367   -7.1734   -6.9209   -6.9148   -6.4435   -5.7602   -5.6132   -5.3938   -5.3785
   -5.0624   -4.3110   -1.6314    0.9806    1.8385    2.6763    6.6875    9.1644   10.6621   11.1937
   11.6475   14.9409   15.5659   15.7101   18.9607   19.7912
 120  1   -9.7773   -9.7773   -9.4055   -9.4055   -8.4141   -8.4141   -8.1402   -8.1402   -7.8612   -7.8612
          -7.2526   -7.2525   -6.9975   -6.9974   -6.6167   -6.6166   -5.2051   -5.2050   -4.9505   -4.9503
   -2.8168   -2.8167   -2.0615   -2.0615    1.4991    1.4992    5.0150    5.0152   12.3377   12.3379
   15.2635   15.2635   15.4308   15.4309   15.5463   15.5464
 121  1   -9.7050   -9.3792   -9.2532   -9.1747   -8.9595   -8.9180   -8.7688   -8.3756   -8.1318   -7.6136
          -7.1137   -6.9232   -6.3798   -6.0986   -6.0066   -5.7119   -5.7040   -5.5696   -5.4840   -4.9180
   -4.4766   -2.8445   -0.2508    2.2719    2.3554    4.3500    5.8664    6.0747    8.1996    8.5429
   10.6290   10.8212   11.2193   14.0566   14.9002   15.1882
 122  1  -10.1013   -9.9054   -9.3380   -8.7760   -8.7557   -8.5730   -8.3193   -7.8895   -7.8693   -7.7569
          -7.5901   -7.4367   -7.1734   -6.9209   -6.9148   -6.4435   -5.7602   -5.6132   -5.3938   -5.3785
   -5.0624   -4.3110   -1.6314    0.9806    1.8385    2.6763    6.6875    9.1644   10.6621   11.1937
   11.6475   14.9409   15.5659   15.7101   18.9607   19.7912
 123  1  -10.5252  -10.4466   -9.8040   -9.3072   -8.4158   -8.1155   -7.9768   -7.6147   -7.6098   -7.4621
          -7.4260   -7.3471   -7.2639   -7.0334   -6.7163   -6.6557   -6.3224   -5.5838   -5.5361   -5.3480
   -5.2073   -4.9395   -2.4109    0.3198    1.2802    1.8942    6.1265    9.7866   10.4743   14.1630
   15.4741   15.9200   17.3885   18.7639   18.9736   20.5412
 124  1  -10.1013   -9.9054   -9.3380   -8.7760   -8.7557   -8.5730   -8.3193   -7.8895   -7.8693   -7.7569
          -7.5901   -7.4367   -7.1734   -6.9209   -6.9148   -6.4435   -5.7602   -5.6132   -5.3938   -5.3785
   -5.0624   -4.3110   -1.6314    0.9806    1.8385    2.6763    6.6875    9.1644   10.6621   11.1937
   11.6475   14.9409   15.5659   15.7101   18.9607   19.7912
 125  1   -9.7050   -9.3792   -9.2532   -9.1747   -8.9595   -8.9180   -8.7688   -8.3756   -8.1318   -7.6136
          -7.1137   -6.9232   -6.3798   -6.0986   -6.0066   -5.7119   -5.7040   -5.5696   -5.4840   -4.9180
   -4.4766   -2.8445   -0.2508    2.2719    2.3554    4.3500    5.8664    6.0747    8.1996    8.5429
   10.6290   10.8212   11.2193   14.0566   14.9002   15.1882
 126  1   -9.7131   -9.7130   -9.3335   -9.3334   -9.2870   -9.2870   -8.7197   -8.7196   -7.4989   -7.4989
          -6.3779   -6.3779   -6.2355   -6.2354   -5.7717   -5.7716   -5.0008   -5.0007   -4.8300   -4.8299
   -1.7576   -1.7575   -0.1152   -0.1152    2.9059    2.9060    5.6326    5.6327    9.0868    9.0868
    9.3672    9.3672   11.0173   11.0174   11.5714   11.5715
 127  1   -9.7131   -9.7130   -9.3335   -9.3334   -9.2870   -9.2870   -8.7197   -8.7196   -7.4989   -7.4989
          -6.3779   -6.3779   -6.2355   -6.2354   -5.7717   -5.7716   -5.0008   -5.0007   -4.8300   -4.8299
   -1.7576   -1.7575   -0.1152   -0.1152    2.9059    2.9060    5.6326    5.6327    9.0868    9.0868
    9.3672    9.3672   11.0173   11.0174   11.5714   11.5715
 128  1   -9.7773   -9.7773   -9.4055   -9.4055   -8.4141   -8.4141   -8.1402   -8.1402   -7.8612   -7.8612
          -7.2526   -7.2525   -6.9975   -6.9974   -6.6167   -6.6166   -5.2051   -5.2050   -4.9505   -4.9503
   -2.8168   -2.8167   -2.0615   -2.0615    1.4991    1.4992    5.0150    5.0152   12.3377   12.3379
   15.2635   15.2635   15.4308   15.4309   15.5463   15.5464
 129  1  -10.2119  -10.2119   -9.6007   -9.6007   -8.0421   -8.0419   -7.8508   -7.8505   -7.6731   -7.6730
          -7.3892   -7.3891   -7.1907   -7.1907   -5.8263   -5.8263   -5.8028   -5.8026   -5.1679   -5.1677
   -3.4049   -3.4049   -3.1872   -3.1872    1.2540    1.2542    4.7623    4.7625   12.8337   12.8339
   16.9106   16.9106   17.7548   17.7548   17.8617   17.8617
 130  1   -9.7773   -9.7773   -9.4055   -9.4055   -8.4141   -8.4141   -8.1402   -8.1402   -7.8612   -7.8612
          -7.2526   -7.2525   -6.9975   -6.9974   -6.6167   -6.6166   -5.2051   -5.2050   -4.9505   -4.9503
   -2.8168   -2.8167   -2.0615   -2.0615    1.4991    1.4992    5.0150    5.0152   12.3377   12.3379
   15.2635   15.2635   15.4308   15.4309   15.5463   15.5464
 131  1   -9.7131   -9.7130   -9.3335   -9.3334   -9.2870   -9.2870   -8.7197   -8.7196   -7.4989   -7.4989
          -6.3779   -6.3779   -6.2355   -6.2354   -5.7717   -5.7716   -5.0008   -5.0007   -4.8300   -4.8299
   -1.7576   -1.7575   -0.1152   -0.1152    2.9059    2.9060    5.6326    5.6327    9.0868    9.0868
    9.3672    9.3672   11.0173   11.0174   11.5714   11.5715
 132  1   -9.9240   -9.9239   -9.6767   -9.6767   -9.3285   -9.3284   -9.0434   -9.0434   -7.1585   -7.1585
          -5.9931   -5.9930   -5.4534   -5.4534   -5.2442   -5.2438   -4.6479   -4.6479   -4.6470   -4.6470
   -0.6486   -0.6486    1.9075    1.9075    3.6753    3.6754    4.1161    4.1161    6.1009    6.1009
    8.2941    8.2942    8.4175    8.4175    8.8503    8.8505
 133  1   -9.5596   -9.3561   -9.2552   -9.1766   -9.1663   -8.9228   -8.7917   -8.5059   -7.8733   -7.4448
          -7.2657   -7.1938   -6.2683   -6.0737   -5.9413   -5.7130   -5.7077   -5.6698   -5.3714   -5.0761
   -4.0608   -3.2427    0.3227    1.6456    2.6901    3.7439    5.8372    5.9448    8.8009    9.2698
   10.1416   10.6360   11.6695   13.4309   15.0470   15.1837
 134  1  -10.0651   -9.9669   -9.2078   -8.9229   -8.6693   -8.4417   -8.4179   -8.0213   -7.7942   -7.7473
          -7.6625   -7.5302   -7.1303   -7.0071   -6.7919   -6.5431   -5.6771   -5.5131   -5.2688   -5.2669
   -5.1159   -4.6441   -0.9517    0.6042    1.5469    2.2198    7.5911    9.5905   10.0876   11.1632
   12.0029   14.4240   15.3847   15.8292   19.2215   19.6305
 135  1  -10.5266  -10.4905   -9.6607   -9.4023   -8.3775   -8.2193   -7.7409   -7.5821   -7.5803   -7.4502
          -7.4477   -7.3436   -7.1469   -7.1289   -7.0130   -6.8182   -6.1214   -5.7226   -5.5801   -5.4237
   -5.1014   -4.9605   -1.5895    0.2414    0.6269    1.4065    7.0916    9.2725   11.4179   14.3937
   14.5664   15.0517   18.0752   18.8457   19.2992   20.2023
 136  1  -10.0651   -9.9669   -9.2078   -8.9229   -8.6693   -8.4417   -8.4179   -8.0213   -7.7942   -7.7473
          -7.6625   -7.5302   -7.1303   -7.0071   -6.7919   -6.5431   -5.6771   -5.5131   -5.2688   -5.2669
   -5.1159   -4.6441   -0.9517    0.6042    1.5469    2.2198    7.5911    9.5905   10.0876   11.1632
   12.0029   14.4240   15.3847   15.8292   19.2215   19.6305
 137  1   -9.5596   -9.3561   -9.2552   -9.1766   -9.1663   -8.9228   -8.7917   -8.5059   -7.8733   -7.4448
          -7.2657   -7.1938   -6.2683   -6.0737   -5.9413   -5.7130   -5.7077   -5.6698   -5.3714   -5.0761
   -4.0608   -3.2427    0.3227    1.6456    2.6901    3.7439    5.8372    5.9448    8.8009    9.2698
   10.1416   10.6360   11.6695   13.4309   15.0470   15.1837
 138  1   -9.6432   -9.6431   -9.4291   -9.4291   -9.1953   -9.1953   -8.8694   -8.8694   -7.2305   -7.2305
          -6.6341   -6.6340   -6.1200   -6.1199   -5.9046   -5.9045   -4.9492   -4.9491   -4.8510   -4.8509
   -1.3829   -1.3829   -0.5469   -0.5468    3.5132    3.5133    4.8900    4.8901    9.1415    9.1416
    9.2862    9.2862   11.3457   11.3458   11.5980   11.5980
 139  1  -10.0651   -9.9669   -9.2078   -8.9229   -8.6693   -8.4417   -8.4179   -8.0213   -7.7942   -7.7473
          -7.6625   -7.5302   -7.1303   -7.0071   -6.7919   -6.5431   -5.6771   -5.5131   -5.2688   -5.2669
   -5.1159   -4.6441   -0.9517    0.6042    1.5469    2.2198    7.5911    9.5905   10.0876   11.1632
   12.0029   14.4240   15.3847   15.8292   19.2215   19.6305
 140  1  -11.0669  -10.6652   -9.1891   -9.0399   -8.9989   -8.8693   -8.3107   -8.2993   -7.9653   -7.5736
          -7.4331   -7.3774   -7.1654   -7.0674   -6.7608   -6.6531   -5.9633   -5.8391   -5.7663   -5.5548
   -5.3977   -5.1035   -2.6136   -1.2864    6.7497    7.2774    7.9743    8.3578   10.9765   14.1152
   14.8627   14.9404   16.7133   16.7228   21.2076   21.7809
 141  1  -11.5753  -11.1576   -9.6644   -9.6117   -9.2338   -9.0240   -8.0873   -7.9646   -7.4865   -7.4863
          -7.4079   -7.3765   -7.1471   -6.6180   -6.3812   -6.3182   -6.2870   -6.2085   -5.9669   -5.9308
   -4.9417   -4.8444   -3.5386   -2.1518    5.7915    7.0677   10.1519   11.4266   12.5584   13.7586
   14.5267   16.7773   19.4303   20.9471   21.4125   21.4167
 142  1  -11.0669  -10.6652   -9.1891   -9.0399   -8.9989   -8.8693   -8.3107   -8.2993   -7.9653   -7.5736
          -7.4331   -7.3774   -7.1654   -7.0674   -6.7608   -6.6531   -5.9633   -5.8391   -5.7663   -5.5548
   -5.3977   -5.1035   -2.6136   -1.2864    6.7497    7.2774    7.9743    8.3578   10.9765   14.1152
   14.8627   14.9404   16.7133   16.7228   21.2076   21.7809
 143  1  -10.0651   -9.9669   -9.2078   -8.9229   -8.6693   -8.4417   -8.4179   -8.0213   -7.7942   -7.7473
          -7.6625   -7.5302   -7.1303   -7.0071   -6.7919   -6.5431   -5.6771   -5.5131   -5.2688   -5.2669
   -5.1159   -4.6441   -0.9517    0.6042    1.5469    2.2198    7.5911    9.5905   10.0876   11.1632
   12.0029   14.4240   15.3847   15.8292   19.2215   19.6305
 144  1   -9.7118   -9.7118   -9.5254   -9.5253   -8.3037   -8.3037   -8.1749   -8.1748   -7.6921   -7.6921
          -7.2410   -7.2409   -7.1364   -7.1364   -6.8184   -6.8183   -5.0632   -5.0631   -4.9382   -4.9380
   -2.6851   -2.6850   -2.2995   -2.2994    2.2163    2.2165    3.9833    3.9834   13.4111   13.4113
   14.9980   14.9980   15.3149   15.3150   15.4386   15.4386
 145  1  -10.5266  -10.4905   -9.6607   -9.4023   -8.3775   -8.2193   -7.7409   -7.5821   -7.5803   -7.4502
          -7.4477   -7.3436   -7.1469   -7.1289   -7.0130   -6.8182   -6.1214   -5.7226   -5.5801   -5.4237
   -5.1014   -4.9605   -1.5895    0.2414    0.6269    1.4065    7.0916    9.2725   11.4179   14.3937
   14.5664   15.0517   18.0752   18.8457   19.2992   20.2023
 146  1  -11.5753  -11.1576   -9.6644   -9.6117   -9.2338   -9.0240   -8.0873   -7.9646   -7.4865   -7.4863
          -7.4079   -7.3765   -7.1471   -6.6180   -6.3812   -6.3182   -6.2870   -6.2085   -5.9669   -5.9308
   -4.9417   -4.8444   -3.5386   -2.1518    5.7915    7.0677   10.1519   11.4266   12.5584   13.7586
   14.5267   16.7773   19.4303   20.9471   21.4125   21.4167
 147  1  -12.0833  -11.6072   -9.9751   -9.8996   -9.6453   -9.4432   -8.2341   -7.9769   -7.5475   -7.5475
          -7.2945   -7.2945   -6.7259   -6.4701   -6.1139   -5.9923   -5.5383   -5.5383   -5.4771   -5.2953
   -5.1536   -5.0897   -5.0897   -4.0405    8.9856   10.2477   10.2477   11.5628   11.5628   13.0445
   19.2653   19.2653   20.9801   20.9801   22.4510   22.5863
 148  1  -11.5753  -11.1576   -9.6644   -9.6117   -9.2338   -9.0240   -8.0873   -7.9646   -7.4865   -7.4863
          -7.4079   -7.3765   -7.1471   -6.6180   -6.3812   -6.3182   -6.2870   -6.2085   -5.9669   -5.9308
   -4.9417   -4.8444   -3.5386   -2.1518    5.7915    7.0677   10.1519   11.4266   12.5584   13.7586
   14.5267   16.7773   19.4303   20.9471   21.4125   21.4167
 149  1  -10.5266  -10.4905   -9.6607   -9.4023   -8.3775   -8.2193   -7.7409   -7.5821   -7.5803   -7.4502
          -7.4477   -7.3436   -7.1469   -7.1289   -7.0130   -6.8182   -6.1214   -5.7226   -5.5801   -5.4237
   -5.1014   -4.9605   -1.5895    0.2414    0.6269    1.4065    7.0916    9.2725   11.4179   14.3937
   14.5664   15.0517   18.0752   18.8457   19.2992   20.2023
 150  1  -10.1011  -10.1010   -9.7921   -9.7921   -7.9878   -7.9876   -7.8917   -7.8915   -7.5832   -7.5832
          -7.3383   -7.3382   -7.0244   -7.0242   -6.2140   -6.2138   -5.6375   -5.6375   -5.3000   -5.2999
   -3.3084   -3.3084   -3.2085   -3.2085    1.9238    1.9240    3.6927    3.6929   14.1374   14.1376
   16.2140   16.2142   17.7809   17.7809   17.8371   17.8371
 151  1  -10.0651   -9.9669   -9.2078   -8.9229   -8.6693   -8.4417   -8.4179   -8.0213   -7.7942   -7.7473
          -7.6625   -7.5302   -7.1303   -7.0071   -6.7919   -6.5431   -5.6771   -5.5131   -5.2688   -5.2669
   -5.1159   -4.6441   -0.9517    0.6042    1.5469    2.2198    7.5911    9.5905   10.0876   11.1632
   12.0029   14.4240   15.3847   15.8292   19.2215   19.6305
 152  1  -11.0669  -10.6652   -9.1891   -9.0399   -8.9989   -8.8693   -8.3107   -8.2993   -7.9653   -7.5736
          -7.4331   -7.3774   -7.1654   -7.0674   -6.7608   -6.6531   -5.9633   -5.8391   -5.7663   -5.5548
   -5.3977   -5.1035   -2.6136   -1.2864    6.7497    7.2774    7.9743    8.3578   10.9765   14.1152
   14.8627   14.9404   16.7133   16.7228   21.2076   21.7809
 153  1  -11.5753  -11.1576   -9.6644   -9.6117   -9.2338   -9.0240   -8.0873   -7.9646   -7.4865   -7.4863
          -7.4079   -7.3765   -7.1471   -6.6180   -6.3812   -6.3182   -6.2870   -6.2085   -5.9669   -5.9308
   -4.9417   -4.8444   -3.5386   -2.1518    5.7915    7.0677   10.1519   11.4266   12.5584   13.7586
   14.5267   16.7773   19.4303   20.9471   21.4125   21.4167
 154  1  -11.0669  -10.6652   -9.1891   -9.0399   -8.9989   -8.8693   -8.3107   -8.2993   -7.9653   -7.5736
          -7.4331   -7.3774   -7.1654   -7.0674   -6.7608   -6.6531   -5.9633   -5.8391   -5.7663   -5.5548
   -5.3977   -5.1035   -2.6136   -1.2864    6.7497    7.2774    7.9743    8.3578   10.9765   14.1152
[...]
          -7.6625   -7.5302   -7.1303   -7.0071   -6.7919   -6.5431   -5.6771   -5.5131   -5.2688   -5.2669
   -5.1159   -4.6441   -0.9517    0.6042    1.5469    2.2198    7.5911    9.5905   10.0876   11.1632
   12.0029   14.4240   15.3847   15.8292   19.2215   19.6305
 159  1  -10.5266  -10.4905   -9.6607   -9.4023   -8.3775   -8.2193   -7.7409   -7.5821   -7.5803   -7.4502
          -7.4477   -7.3436   -7.1469   -7.1289   -7.0130   -6.8182   -6.1214   -5.7226   -5.5801   -5.4237
   -5.1014   -4.9605   -1.5895    0.2414    0.6269    1.4065    7.0916    9.2725   11.4179   14.3937
   14.5664   15.0517   18.0752   18.8457   19.2992   20.2023
 160  1  -10.0651   -9.9669   -9.2078   -8.9229   -8.6693   -8.4417   -8.4179   -8.0213   -7.7942   -7.7473
          -7.6625   -7.5302   -7.1303   -7.0071   -6.7919   -6.5431   -5.6771   -5.5131   -5.2688   -5.2669
   -5.1159   -4.6441   -0.9517    0.6042    1.5469    2.2198    7.5911    9.5905   10.0876   11.1632
   12.0029   14.4240   15.3847   15.8292   19.2215   19.6305
 161  1   -9.5596   -9.3561   -9.2552   -9.1766   -9.1663   -8.9228   -8.7917   -8.5059   -7.8733   -7.4448
          -7.2657   -7.1938   -6.2683   -6.0737   -5.9413   -5.7130   -5.7077   -5.6698   -5.3714   -5.0761
   -4.0608   -3.2427    0.3227    1.6456    2.6901    3.7439    5.8372    5.9448    8.8009    9.2698
   10.1416   10.6360   11.6695   13.4309   15.0470   15.1837
 162  1   -9.6432   -9.6431   -9.4291   -9.4291   -9.1953   -9.1953   -8.8694   -8.8694   -7.2305   -7.2305
          -6.6341   -6.6340   -6.1200   -6.1199   -5.9046   -5.9045   -4.9492   -4.9491   -4.8510   -4.8509
   -1.3829   -1.3829   -0.5469   -0.5468    3.5132    3.5133    4.8900    4.8901    9.1415    9.1416
    9.2862    9.2862   11.3457   11.3458   11.5980   11.5980
 163  1   -9.6432   -9.6431   -9.4291   -9.4291   -9.1953   -9.1953   -8.8694   -8.8694   -7.2305   -7.2305
          -6.6341   -6.6340   -6.1200   -6.1199   -5.9046   -5.9045   -4.9492   -4.9491   -4.8510   -4.8509
   -1.3829   -1.3829   -0.5469   -0.5468    3.5132    3.5133    4.8900    4.8901    9.1415    9.1416
    9.2862    9.2862   11.3457   11.3458   11.5980   11.5980
 164  1   -9.7118   -9.7118   -9.5254   -9.5253   -8.3037   -8.3037   -8.1749   -8.1748   -7.6921   -7.6921
          -7.2410   -7.2409   -7.1364   -7.1364   -6.8184   -6.8183   -5.0632   -5.0631   -4.9382   -4.9380
   -2.6851   -2.6850   -2.2995   -2.2994    2.2163    2.2165    3.9833    3.9834   13.4111   13.4113
   14.9980   14.9980   15.3149   15.3150   15.4386   15.4386
 165  1  -10.1011  -10.1010   -9.7921   -9.7921   -7.9878   -7.9876   -7.8917   -7.8915   -7.5832   -7.5832
          -7.3383   -7.3382   -7.0244   -7.0242   -6.2140   -6.2138   -5.6375   -5.6375   -5.3000   -5.2999
   -3.3084   -3.3084   -3.2085   -3.2085    1.9238    1.9240    3.6927    3.6929   14.1374   14.1376
   16.2140   16.2142   17.7809   17.7809   17.8371   17.8371
 166  1   -9.7118   -9.7118   -9.5254   -9.5253   -8.3037   -8.3037   -8.1749   -8.1748   -7.6921   -7.6921
          -7.2410   -7.2409   -7.1364   -7.1364   -6.8184   -6.8183   -5.0632   -5.0631   -4.9382   -4.9380
   -2.6851   -2.6850   -2.2995   -2.2994    2.2163    2.2165    3.9833    3.9834   13.4111   13.4113
   14.9980   14.9980   15.3149   15.3150   15.4386   15.4386
 167  1   -9.6432   -9.6431   -9.4291   -9.4291   -9.1953   -9.1953   -8.8694   -8.8694   -7.2305   -7.2305
          -6.6341   -6.6340   -6.1200   -6.1199   -5.9046   -5.9045   -4.9492   -4.9491   -4.8510   -4.8509
   -1.3829   -1.3829   -0.5469   -0.5468    3.5132    3.5133    4.8900    4.8901    9.1415    9.1416
    9.2862    9.2862   11.3457   11.3458   11.5980   11.5980
 168  1   -9.8019   -9.8018   -9.5660   -9.5660   -9.4925   -9.4924   -9.2494   -9.2494   -6.7483   -6.7483
          -5.8830   -5.8830   -5.7905   -5.7903   -5.4005   -5.4002   -4.6477   -4.6477   -4.6472   -4.6472
   -0.0675   -0.0675    1.2246    1.2246    3.7759    3.7759    4.0079    4.0079    6.7575    6.7575
    7.9365    7.9365    8.4067    8.4067    8.6971    8.6972
 169  1   -9.3809   -9.3809   -9.3152   -9.3152   -9.0558   -9.0558   -8.6504   -8.6504   -7.5834   -7.5834
          -7.3039   -7.3039   -6.1622   -6.1622   -5.7957   -5.7957   -5.7111   -5.7111   -5.2326   -5.2326
   -3.6483   -3.6483    0.9581    0.9581    3.1862    3.1862    5.8659    5.8659    9.4561    9.4561
    9.9753    9.9753   12.6246   12.6246   15.1397   15.1397
 170  1  -10.0202  -10.0202   -9.0689   -9.0689   -8.5612   -8.5612   -8.2293   -8.2293   -7.7348   -7.7348
          -7.6341   -7.6341   -7.0764   -7.0764   -6.6624   -6.6624   -5.5876   -5.5876   -5.1829   -5.1829
   -4.9656   -4.9656   -0.1918   -0.1918    1.8276    1.8276    8.5616    8.5616   10.6803   10.6803
   13.1766   13.1766   15.7016   15.7016   19.4431   19.4431
 171  1  -10.5163  -10.5163   -9.5235   -9.5235   -8.3098   -8.3098   -7.5871   -7.5871   -7.5259   -7.5259
          -7.3140   -7.3140   -7.2502   -7.2502   -6.9785   -6.9785   -5.9196   -5.9196   -5.5081   -5.5081
   -5.0162   -5.0162   -0.7038   -0.7038    0.9802    0.9802    8.1415    8.1415   13.0383   13.0383
   14.6904   14.6904   18.5553   18.5553   19.7839   19.7839
 172  1  -10.0202  -10.0202   -9.0689   -9.0689   -8.5612   -8.5612   -8.2293   -8.2293   -7.7348   -7.7348
          -7.6341   -7.6341   -7.0764   -7.0764   -6.6624   -6.6624   -5.5876   -5.5876   -5.1829   -5.1829
   -4.9656   -4.9656   -0.1918   -0.1918    1.8276    1.8276    8.5616    8.5616   10.6803   10.6803
   13.1766   13.1766   15.7016   15.7016   19.4431   19.4431
 173  1   -9.3809   -9.3809   -9.3152   -9.3152   -9.0558   -9.0558   -8.6504   -8.6504   -7.5834   -7.5834
          -7.3039   -7.3039   -6.1622   -6.1622   -5.7957   -5.7957   -5.7111   -5.7111   -5.2326   -5.2326
   -3.6483   -3.6483    0.9581    0.9581    3.1862    3.1862    5.8659    5.8659    9.4561    9.4561
    9.9753    9.9753   12.6246   12.6246   15.1397   15.1397
 174  1   -9.5484   -9.5484   -9.5483   -9.5483   -9.0359   -9.0359   -9.0359   -9.0359   -6.9320   -6.9320
          -6.9320   -6.9320   -6.0121   -6.0121   -6.0120   -6.0120   -4.8954   -4.8954   -4.8953   -4.8953
   -0.9733   -0.9733   -0.9732   -0.9732    4.1770    4.1770    4.1771    4.1771    9.2091    9.2091
    9.2091    9.2091   11.5350   11.5350   11.5350   11.5350
 175  1  -10.0202  -10.0202   -9.0689   -9.0689   -8.5612   -8.5612   -8.2293   -8.2293   -7.7348   -7.7348
          -7.6341   -7.6341   -7.0764   -7.0764   -6.6624   -6.6624   -5.5876   -5.5876   -5.1829   -5.1829
   -4.9656   -4.9656   -0.1918   -0.1918    1.8276    1.8276    8.5616    8.5616   10.6803   10.6803
   13.1766   13.1766   15.7016   15.7016   19.4431   19.4431
 176  1  -10.8818  -10.8818   -9.1045   -9.1045   -8.9391   -8.9391   -8.2972   -8.2972   -7.7820   -7.7820
          -7.4079   -7.4079   -7.1304   -7.1304   -6.6968   -6.6968   -5.8779   -5.8779   -5.6029   -5.6029
   -5.3199   -5.3199   -1.9947   -1.9947    7.3718    7.3718    7.7767    7.7767   12.4880   12.4880
   15.8265   15.8265   15.8582   15.8582   21.5070   21.5070
 177  1  -11.3833  -11.3833   -9.6293   -9.6293   -9.1372   -9.1372   -8.0121   -8.0121   -7.4428   -7.4428
          -7.4393   -7.4393   -6.8814   -6.8814   -6.3718   -6.3718   -6.1064   -6.1064   -6.0952   -6.0952
   -4.8803   -4.8803   -2.8758   -2.8758    6.4103    6.4103   11.9062   11.9062   11.9435   11.9435
   15.6636   15.6636   20.2377   20.2377   21.4511   21.4511
 178  1  -10.8818  -10.8818   -9.1045   -9.1045   -8.9391   -8.9391   -8.2972   -8.2972   -7.7820   -7.7820
          -7.4079   -7.4079   -7.1304   -7.1304   -6.6968   -6.6968   -5.8779   -5.8779   -5.6029   -5.6029
   -5.3199   -5.3199   -1.9947   -1.9947    7.3718    7.3718    7.7767    7.7767   12.4880   12.4880
   15.8265   15.8265   15.8582   15.8582   21.5070   21.5070
 179  1  -10.0202  -10.0202   -9.0689   -9.0689   -8.5612   -8.5612   -8.2293   -8.2293   -7.7348   -7.7348
          -7.6341   -7.6341   -7.0764   -7.0764   -6.6624   -6.6624   -5.5876   -5.5876   -5.1829   -5.1829
   -4.9656   -4.9656   -0.1918   -0.1918    1.8276    1.8276    8.5616    8.5616   10.6803   10.6803
   13.1766   13.1766   15.7016   15.7016   19.4431   19.4431
 180  1   -9.6277   -9.6277   -9.6276   -9.6276   -8.2272   -8.2272   -8.2272   -8.2272   -7.4769   -7.4769
          -7.4768   -7.4768   -6.9941   -6.9941   -6.9941   -6.9941   -4.9735   -4.9735   -4.9734   -4.9734
   -2.5110   -2.5110   -2.5109   -2.5109    3.0477    3.0477    3.0479    3.0479   14.3092   14.3092
   14.3093   14.3093   15.3743   15.3743   15.3743   15.3743
 181  1  -10.5163  -10.5163   -9.5235   -9.5235   -8.3098   -8.3098   -7.5871   -7.5871   -7.5259   -7.5259
          -7.3140   -7.3140   -7.2502   -7.2502   -6.9785   -6.9785   -5.9196   -5.9196   -5.5081   -5.5081
   -5.0162   -5.0162   -0.7038   -0.7038    0.9802    0.9802    8.1415    8.1415   13.0383   13.0383
   14.6904   14.6904   18.5553   18.5553   19.7839   19.7839
 182  1  -11.3833  -11.3833   -9.6293   -9.6293   -9.1372   -9.1372   -8.0121   -8.0121   -7.4428   -7.4428
          -7.4393   -7.4393   -6.8814   -6.8814   -6.3718   -6.3718   -6.1064   -6.1064   -6.0952   -6.0952
   -4.8803   -4.8803   -2.8758   -2.8758    6.4103    6.4103   11.9062   11.9062   11.9435   11.9435
   15.6636   15.6636   20.2377   20.2377   21.4511   21.4511
 183  1  -11.8667  -11.8667   -9.9301   -9.9301   -9.5531   -9.5531   -8.0967   -8.0967   -7.4333   -7.4333
          -7.4333   -7.4333   -6.5937   -6.5937   -6.0582   -6.0582   -5.3032   -5.3032   -5.3032   -5.3032
   -5.2193   -5.2193   -4.7923   -4.7923   10.8527   10.8527   10.8527   10.8527   10.9640   10.9640
   20.1755   20.1755   20.1755   20.1755   22.5539   22.5539
 184  1  -11.3833  -11.3833   -9.6293   -9.6293   -9.1372   -9.1372   -8.0121   -8.0121   -7.4428   -7.4428
          -7.4393   -7.4393   -6.8814   -6.8814   -6.3718   -6.3718   -6.1064   -6.1064   -6.0952   -6.0952
   -4.8803   -4.8803   -2.8758   -2.8758    6.4103    6.4103   11.9062   11.9062   11.9435   11.9435
   15.6636   15.6636   20.2377   20.2377   21.4511   21.4511
 185  1  -10.5163  -10.5163   -9.5235   -9.5235   -8.3098   -8.3098   -7.5871   -7.5871   -7.5259   -7.5259
          -7.3140   -7.3140   -7.2502   -7.2502   -6.9785   -6.9785   -5.9196   -5.9196   -5.5081   -5.5081
   -5.0162   -5.0162   -0.7038   -0.7038    0.9802    0.9802    8.1415    8.1415   13.0383   13.0383
   14.6904   14.6904   18.5553   18.5553   19.7839   19.7839
 186  1   -9.9604   -9.9604   -9.9604   -9.9604   -7.9381   -7.9381   -7.9380   -7.9380   -7.4707   -7.4707
          -7.4706   -7.4706   -6.6268   -6.6268   -6.6266   -6.6266   -5.4590   -5.4590   -5.4589   -5.4589
   -3.2460   -3.2460   -3.2460   -3.2460    2.7424    2.7424    2.7426    2.7426   15.2811   15.2811
   15.2813   15.2813   17.8093   17.8093   17.8093   17.8093
 187  1  -10.0202  -10.0202   -9.0689   -9.0689   -8.5612   -8.5612   -8.2293   -8.2293   -7.7348   -7.7348
          -7.6341   -7.6341   -7.0764   -7.0764   -6.6624   -6.6624   -5.5876   -5.5876   -5.1829   -5.1829
   -4.9656   -4.9656   -0.1918   -0.1918    1.8276    1.8276    8.5616    8.5616   10.6803   10.6803
   13.1766   13.1766   15.7016   15.7016   19.4431   19.4431
 188  1  -10.8818  -10.8818   -9.1045   -9.1045   -8.9391   -8.9391   -8.2972   -8.2972   -7.7820   -7.7820
          -7.4079   -7.4079   -7.1304   -7.1304   -6.6968   -6.6968   -5.8779   -5.8779   -5.6029   -5.6029
   -5.3199   -5.3199   -1.9947   -1.9947    7.3718    7.3718    7.7767    7.7767   12.4880   12.4880
   15.8265   15.8265   15.8582   15.8582   21.5070   21.5070
 189  1  -11.3833  -11.3833   -9.6293   -9.6293   -9.1372   -9.1372   -8.0121   -8.0121   -7.4428   -7.4428
          -7.4393   -7.4393   -6.8814   -6.8814   -6.3718   -6.3718   -6.1064   -6.1064   -6.0952   -6.0952
   -4.8803   -4.8803   -2.8758   -2.8758    6.4103    6.4103   11.9062   11.9062   11.9435   11.9435
   15.6636   15.6636   20.2377   20.2377   21.4511   21.4511
 190  1  -10.8818  -10.8818   -9.1045   -9.1045   -8.9391   -8.9391   -8.2972   -8.2972   -7.7820   -7.7820
          -7.4079   -7.4079   -7.1304   -7.1304   -6.6968   -6.6968   -5.8779   -5.8779   -5.6029   -5.6029
   -5.3199   -5.3199   -1.9947   -1.9947    7.3718    7.3718    7.7767    7.7767   12.4880   12.4880
   15.8265   15.8265   15.8582   15.8582   21.5070   21.5070
 191  1  -10.0202  -10.0202   -9.0689   -9.0689   -8.5612   -8.5612   -8.2293   -8.2293   -7.7348   -7.7348
          -7.6341   -7.6341   -7.0764   -7.0764   -6.6624   -6.6624   -5.5876   -5.5876   -5.1829   -5.1829
   -4.9656   -4.9656   -0.1918   -0.1918    1.8276    1.8276    8.5616    8.5616   10.6803   10.6803
   13.1766   13.1766   15.7016   15.7016   19.4431   19.4431
 192  1   -9.6277   -9.6277   -9.6276   -9.6276   -8.2272   -8.2272   -8.2272   -8.2272   -7.4769   -7.4769
          -7.4768   -7.4768   -6.9941   -6.9941   -6.9941   -6.9941   -4.9735   -4.9735   -4.9734   -4.9734
   -2.5110   -2.5110   -2.5109   -2.5109    3.0477    3.0477    3.0479    3.0479   14.3092   14.3092
   14.3093   14.3093   15.3743   15.3743   15.3743   15.3743
 193  1   -9.3809   -9.3809   -9.3152   -9.3152   -9.0558   -9.0558   -8.6504   -8.6504   -7.5834   -7.5834
          -7.3039   -7.3039   -6.1622   -6.1622   -5.7957   -5.7957   -5.7111   -5.7111   -5.2326   -5.2326
   -3.6483   -3.6483    0.9581    0.9581    3.1862    3.1862    5.8659    5.8659    9.4561    9.4561
    9.9753    9.9753   12.6246   12.6246   15.1397   15.1397
 194  1  -10.0202  -10.0202   -9.0689   -9.0689   -8.5612   -8.5612   -8.2293   -8.2293   -7.7348   -7.7348
          -7.6341   -7.6341   -7.0764   -7.0764   -6.6624   -6.6624   -5.5876   -5.5876   -5.1829   -5.1829
   -4.9656   -4.9656   -0.1918   -0.1918    1.8276    1.8276    8.5616    8.5616   10.6803   10.6803
   13.1766   13.1766   15.7016   15.7016   19.4431   19.4431
 195  1  -10.5163  -10.5163   -9.5235   -9.5235   -8.3098   -8.3098   -7.5871   -7.5871   -7.5259   -7.5259
          -7.3140   -7.3140   -7.2502   -7.2502   -6.9785   -6.9785   -5.9196   -5.9196   -5.5081   -5.5081
   -5.0162   -5.0162   -0.7038   -0.7038    0.9802    0.9802    8.1415    8.1415   13.0383   13.0383
   14.6904   14.6904   18.5553   18.5553   19.7839   19.7839
 196  1  -10.0202  -10.0202   -9.0689   -9.0689   -8.5612   -8.5612   -8.2293   -8.2293   -7.7348   -7.7348
          -7.6341   -7.6341   -7.0764   -7.0764   -6.6624   -6.6624   -5.5876   -5.5876   -5.1829   -5.1829
   -4.9656   -4.9656   -0.1918   -0.1918    1.8276    1.8276    8.5616    8.5616   10.6803   10.6803
   13.1766   13.1766   15.7016   15.7016   19.4431   19.4431
 197  1   -9.3809   -9.3809   -9.3152   -9.3152   -9.0558   -9.0558   -8.6504   -8.6504   -7.5834   -7.5834
          -7.3039   -7.3039   -6.1622   -6.1622   -5.7957   -5.7957   -5.7111   -5.7111   -5.2326   -5.2326
   -3.6483   -3.6483    0.9581    0.9581    3.1862    3.1862    5.8659    5.8659    9.4561    9.4561
    9.9753    9.9753   12.6246   12.6246   15.1397   15.1397
 198  1   -9.5484   -9.5484   -9.5483   -9.5483   -9.0359   -9.0359   -9.0359   -9.0359   -6.9320   -6.9320
          -6.9320   -6.9320   -6.0121   -6.0121   -6.0120   -6.0120   -4.8954   -4.8954   -4.8953   -4.8953
   -0.9733   -0.9733   -0.9732   -0.9732    4.1770    4.1770    4.1771    4.1771    9.2091    9.2091
    9.2091    9.2091   11.5350   11.5350   11.5350   11.5350
 199  1   -9.5484   -9.5484   -9.5483   -9.5483   -9.0359   -9.0359   -9.0359   -9.0359   -6.9320   -6.9320
          -6.9320   -6.9320   -6.0121   -6.0121   -6.0120   -6.0120   -4.8954   -4.8954   -4.8953   -4.8953
   -0.9733   -0.9733   -0.9732   -0.9732    4.1770    4.1770    4.1771    4.1771    9.2091    9.2091
    9.2091    9.2091   11.5350   11.5350   11.5350   11.5350
 200  1   -9.6277   -9.6277   -9.6276   -9.6276   -8.2272   -8.2272   -8.2272   -8.2272   -7.4769   -7.4769
          -7.4768   -7.4768   -6.9941   -6.9941   -6.9941   -6.9941   -4.9735   -4.9735   -4.9734   -4.9734
   -2.5110   -2.5110   -2.5109   -2.5109    3.0477    3.0477    3.0479    3.0479   14.3092   14.3092
   14.3093   14.3093   15.3743   15.3743   15.3743   15.3743
 201  1   -9.9604   -9.9604   -9.9604   -9.9604   -7.9381   -7.9381   -7.9380   -7.9380   -7.4707   -7.4707
          -7.4706   -7.4706   -6.6268   -6.6268   -6.6266   -6.6266   -5.4590   -5.4590   -5.4589   -5.4589
   -3.2460   -3.2460   -3.2460   -3.2460    2.7424    2.7424    2.7426    2.7426   15.2811   15.2811
   15.2813   15.2813   17.8093   17.8093   17.8093   17.8093
 202  1   -9.6277   -9.6277   -9.6276   -9.6276   -8.2272   -8.2272   -8.2272   -8.2272   -7.4769   -7.4769
          -7.4768   -7.4768   -6.9941   -6.9941   -6.9941   -6.9941   -4.9735   -4.9735   -4.9734   -4.9734
   -2.5110   -2.5110   -2.5109   -2.5109    3.0477    3.0477    3.0479    3.0479   14.3092   14.3092
   14.3093   14.3093   15.3743   15.3743   15.3743   15.3743
 203  1   -9.5484   -9.5484   -9.5483   -9.5483   -9.0359   -9.0359   -9.0359   -9.0359   -6.9320   -6.9320
          -6.9320   -6.9320   -6.0121   -6.0121   -6.0120   -6.0120   -4.8954   -4.8954   -4.8953   -4.8953
   -0.9733   -0.9733   -0.9732   -0.9732    4.1770    4.1770    4.1771    4.1771    9.2091    9.2091
    9.2091    9.2091   11.5350   11.5350   11.5350   11.5350
 204  1   -9.6549   -9.6549   -9.6548   -9.6548   -9.4236   -9.4236   -9.4236   -9.4236   -6.3201   -6.3201
          -6.3201   -6.3201   -5.5869   -5.5869   -5.5867   -5.5867   -4.6475   -4.6475   -4.6475   -4.6475
    0.5627    0.5627    0.5627    0.5627    3.8904    3.8904    3.8904    3.8904    7.3754    7.3754
    7.3754    7.3754    8.5442    8.5442    8.5442    8.5442
siesta: Fermi energy =      -2.818980 eV

siesta: Program's energy decomposition (eV):
siesta: Ebs     =      -319.791835
siesta: Eions   =      3801.028149
siesta: Ena     =        13.426793
siesta: Ekin    =      2612.468516
siesta: Enl     =     -1689.401770
siesta: Eso     =         0.000000
siesta: Edftu   =         0.000000
siesta: DEna    =         3.654661
siesta: DUscf   =         1.482421
siesta: DUext   =         0.000000
siesta: Exc     =     -2874.198718
siesta: eta*DQ  =         0.000000
siesta: Emadel  =         0.000000
siesta: Emeta   =         0.000000
siesta: Emolmec =         0.000000
siesta: Ekinion =         0.000000
siesta: Eharris =     -5733.596246
siesta: Etot    =     -5733.596246
siesta: FreeEng =     -5733.599855

siesta: Final energy (eV):
siesta:  Band Struct. =    -319.791835
siesta:       Kinetic =    2612.468516
siesta:       Hartree =     408.667778
siesta:       Edftu   =       0.000000
siesta:       Eso     =       0.000000
siesta:    Ext. field =       0.000000
siesta:   Exch.-corr. =   -2874.198718
siesta:  Ion-electron =   -2808.436512
siesta:       Ion-ion =   -3072.097310
siesta:       Ekinion =       0.000000
siesta:         Total =   -5733.596246
siesta:         Fermi =      -2.818980

siesta: Stress tensor (static) (eV/Ang**3):
siesta:    -0.146807    0.000000   -0.000000
siesta:     0.000000   -0.146807    0.000000
siesta:    -0.000000    0.000000   -0.135905

siesta: Cell volume =         67.827326 Ang**3

siesta: Pressure (static):
siesta:                Solid            Molecule  Units
siesta:           0.00155933          0.00155933  Ry/Bohr**3
siesta:           0.14317269          0.14317269  eV/Ang**3
siesta:         229.39041815        229.39041935  kBar
(Free)E+ p_basis*V_orbitals  =       -5730.828160
(Free)Eharris+ p_basis*V_orbitals  =       -5730.828160

cite: Please see "elec_au_100.bib" for an exhaustive BiBTeX file.
cite: Please clearly indicate Siesta version in published work: v4.1-b4-351
cite: This calculation has made use of the following articles
cite: which are encouraged to be cited in a published work.
        Primary SIESTA paper
          DOI: www.doi.org/10.1088/0953-8984/14/11/302

>> End of run:  23-JAN-2021   0:54:25
Job completed
