Siesta Version:                                        siesta-3.2
Architecture  : x86_64-unknown-linux-gnu--unknown
Compiler flags: mpiifort -O2 -g  -assume byterecl -w -fPIC -fp-model source
PARALLEL version

* Running on  240 nodes in parallel
>> Start of run:  24-MAY-2023   6:15:19

                           ***********************       
                           *  WELCOME TO SIESTA  *       
                           ***********************       

reinit: Reading from standard input
************************** Dump of input data file ****************************
SystemName      Bulk Silisin
SystemLabel     Sibulk
NumberOfSpecies	        1
%block ChemicalSpeciesLabel
  1  14  Si
%endblock ChemicalSpeciesLabel
NumberOfAtoms           8
LatticeConstant      5.430 Ang
%block LatticeVectors
  1.00  0.00  0.00
  0.00  1.00  0.00
  0.00  0.00  1.00
%endblock LatticeVectors
AtomicCoordinatesFormat   Fractional
%block AtomicCoordinatesAndAtomicSpecies
  0.00000000000000  0.00000000000000  0.00000000000000  1
  0.00000000000000  0.50000000000000  0.50000000000000  1
  0.50000000000000  0.00000000000000  0.50000000000000  1
  0.50000000000000  0.50000000000000  0.00000000000000  1
  0.75000000000000  0.25000000000000  0.75000000000000  1
  0.25000000000000  0.25000000000000  0.25000000000000  1
  0.25000000000000  0.75000000000000  0.75000000000000  1
  0.75000000000000  0.75000000000000  0.25000000000000  1
%endblock AtomicCoordinatesAndAtomicSpecies
%block Supercell
   4   0   0
   0   4   0
   0   0   4
%endblock Supercell
kgrid.Cutoff 0. Bohr
PAO.BasisSize DZP
%block NAO2GTO
Si   5
3  0  1  5
       0.179543763     0.766529816
       1.428571429    -0.738302342
       2.000000000    -1.004566820
       2.800000000     1.982436539
       3.920000000    -0.736616451
3  0  2  5
       0.335009542     2.745919238
       0.469013358    -2.059683130
       1.883789851    -2.767628033
       2.637305791     3.385876003
       3.692228108    -1.091102315
3  1  1  4
       0.150000000     0.236476747
       0.684470842     0.803265300
       0.958259179    -0.961002579
       1.341562851     0.311032675
3  1  2  4
       0.244635090     0.486420717
       0.905208197     0.361970708
       1.267291476    -0.570942156
       1.774208066     0.219187269
3  2  1  3
       0.256969853     0.204146654
       2.078564229     0.089743383
     102.000000000     0.056704347
%endblock NAO2GTO
#WriteIonPlotFiles .true.
xc.functional      GGA    # Default vaxc.authors         HSE    # Default value
xc.authors   HSE06    # Default value
ElectronicTemperature   25 meV
MeshCutoff              150. Ry     # Equivalent planewave cutoff for the grid
MaxSCFIterations        50         # Maximum number of SCF iterations per step
DM.MixingWeight         0.3         # New DM amount for next SCF cycle
DM.Tolerance            1.d-4       # Tolerance in maximum difference
DM.NumberPulay          3          # Number of SCF steps between pulay mixing
# Eigenvalue problem: order-N or diagonalization
SolutionMethod          diagon      # OrderN or Diagon
MD.TypeOfRun            cg          # Type of dynamics:
MD.NumCGsteps  0
MD.VariableCell   .false.
MD.MaxForceTol  0.01 eV/Ang
#WriteMDXmol   .true.
WriteForces  .true.
WriteCoorStep
HFX.MinimumNumberGaussians                  3
HFX.MaximumNumberGaussians                  5
HFX.UseFittedNAOs                 T
HFX.TruncateDM                    T
HFX.FarField                      T
HFX.FarFieldTolerance     0.100E-05
HFX.PairListTolerance     0.100E-05
HFX.SchwarzTolerance      0.100E-05
HFX.StoreERIsTolerance    0.100E-05
HFX.GaussianEPS                 1.0E-05
HFX.Dynamic_parallel              T
HFX.FragSize               100000
************************** End of input data file *****************************

reinit: -----------------------------------------------------------------------
reinit: System Name: Bulk Silisin
reinit: -----------------------------------------------------------------------
reinit: System Label: Sibulk                                                      
reinit: -----------------------------------------------------------------------

initatom: Reading input for the pseudopotentials and atomic orbitals ----------
 Species number:            1  Label: Si Atomic number:          14
Ground state valence configuration:   3s02  3p02
Reading pseudopotential information in formatted form from Si.psf

Valence configuration for pseudopotential generation:
3s( 2.00) rc: 1.89
3p( 2.00) rc: 1.89
3d( 0.00) rc: 1.89
4f( 0.00) rc: 1.89
For Si, standard SIESTA heuristics set lmxkb to 3
 (one more than the basis l, including polarization orbitals).
Use PS.lmax or PS.KBprojectors blocks to override.

<basis_specs>
===============================================================================
Si                   Z=  14    Mass=  28.090        Charge= 0.17977+309
Lmxo=1 Lmxkb= 3    BasisType=split      Semic=F
L=0  Nsemic=0  Cnfigmx=3
          n=1  nzeta=2  polorb=0
            splnorm:   0.15000    
               vcte:    0.0000    
               rinn:    0.0000    
                rcs:    0.0000      0.0000    
            lambdas:    1.0000      1.0000    
L=1  Nsemic=0  Cnfigmx=3
          n=1  nzeta=2  polorb=1
            splnorm:   0.15000    
               vcte:    0.0000    
               rinn:    0.0000    
                rcs:    0.0000      0.0000    
            lambdas:    1.0000      1.0000    
-------------------------------------------------------------------------------
L=0  Nkbl=1  erefs: 0.17977+309
L=1  Nkbl=1  erefs: 0.17977+309
L=2  Nkbl=1  erefs: 0.17977+309
L=3  Nkbl=1  erefs: 0.17977+309
===============================================================================
</basis_specs>

atom: Called for Si                    (Z =  14)

read_vps: Pseudopotential generation method:
read_vps: ATM3      Troullier-Martins                       
Total valence charge:    4.00000

xc_check: Exchange-correlation functional:
xc_check: HSE06: JCP 125, 224106 (2006)
xc_check: WARNING: Pseudopotential generated with GGA Perdew, Burke & Ernzerhof 1996 functional
V l=0 = -2*Zval/r beyond r=  2.7826
V l=1 = -2*Zval/r beyond r=  2.7826
V l=2 = -2*Zval/r beyond r=  2.7826
V l=3 = -2*Zval/r beyond r=  2.7826
All V_l potentials equal beyond r=  1.8652
This should be close to max(r_c) in ps generation
All pots = -2*Zval/r beyond r=  2.7826
Using large-core scheme for Vlocal

atom: Estimated core radius    2.78258

atom: Including non-local core corrections could be a good idea
atom: Maximum radius for 4*pi*r*r*local-pseudopot. charge    3.07525
atom: Maximum radius for r*vlocal+2*Zval:    2.81758
GHOST: No ghost state for L =  0
GHOST: No ghost state for L =  1
GHOST: No ghost state for L =  2
GHOST: No ghost state for L =  3

KBgen: Kleinman-Bylander projectors: 
   l= 0   rc=  1.936440   el= -0.791474   Ekb=  4.527346   kbcos=  0.300929
   l= 1   rc=  1.936440   el= -0.300649   Ekb=  1.471620   kbcos=  0.304055
   l= 2   rc=  1.936440   el=  0.001958   Ekb= -2.865202   kbcos= -0.050894
   l= 3   rc=  1.936440   el=  0.003046   Ekb= -0.889187   kbcos= -0.005274

KBgen: Total number of  Kleinman-Bylander projectors:   16
atom: -------------------------------------------------------------------------

atom: SANKEY-TYPE ORBITALS:
atom: Selected multiple-zeta basis: split     

SPLIT: Orbitals with angular momentum L= 0

SPLIT: Basis orbitals for state 3s

SPLIT: PAO cut-off radius determined from an
SPLIT: energy shift=  0.020000 Ry

   izeta = 1
                 lambda =    1.000000
                     rc =    5.007352
                 energy =   -0.772769
                kinetic =    0.573186
    potential(screened) =   -1.345955
       potential(ionic) =   -3.804540

   izeta = 2
                 rmatch =    4.418952
              splitnorm =    0.150000
                 energy =   -0.675735
                kinetic =    0.871891
    potential(screened) =   -1.547626
       potential(ionic) =   -4.104120

SPLIT: Orbitals with angular momentum L= 1

SPLIT: Basis orbitals for state 3p

SPLIT: PAO cut-off radius determined from an
SPLIT: energy shift=  0.020000 Ry

   izeta = 1
                 lambda =    1.000000
                     rc =    6.270866
                 energy =   -0.282609
                kinetic =    0.876409
    potential(screened) =   -1.159018
       potential(ionic) =   -3.411547

   izeta = 2
                 rmatch =    5.007352
              splitnorm =    0.150000
                 energy =   -0.188900
                kinetic =    1.263886
    potential(screened) =   -1.452786
       potential(ionic) =   -3.887248

POLgen: Perturbative polarization orbital with L=  2

POLgen: Polarization orbital for state 3p

   izeta = 1
                     rc =    6.270866
                 energy =    0.439455
                kinetic =    1.304724
    potential(screened) =   -0.865269
       potential(ionic) =   -2.934348
atom: Total number of Sankey-type orbitals: 13

atm_pop: Valence configuration (for local Pseudopot. screening):
 3s( 2.00)                                                            
 3p( 2.00)                                                            
Vna: chval, zval:    4.00000   4.00000

Vna:  Cut-off radius for the neutral-atom potential:   6.270866

atom: _________________________________________________________________________

prinput: Basis input ----------------------------------------------------------

PAO.BasisType split     

%block ChemicalSpeciesLabel
    1   14 Si                      # Species index, atomic number, species label
%endblock ChemicalSpeciesLabel

%block PAO.Basis                 # Define Basis set
Si                    2                    # Species label, number of l-shells
 n=3   0   2                         # n, l, Nzeta 
   5.007      4.419   
   1.000      1.000   
 n=3   1   2 P   1                   # n, l, Nzeta, Polarization, NzetaPol
   6.271      5.007   
   1.000      1.000   
%endblock PAO.Basis

prinput: ----------------------------------------------------------------------

 Read NAO2GTO from input fdf file
nao2gto_transfer: isp, inlz, ipgf, pgf_radius =     1    1    1     8.00770
nao2gto_transfer: isp, inlz, ipgf, pgf_radius =     1    1    2     2.83885
nao2gto_transfer: isp, inlz, ipgf, pgf_radius =     1    1    3     2.39926
nao2gto_transfer: isp, inlz, ipgf, pgf_radius =     1    1    4     2.02775
nao2gto_transfer: isp, inlz, ipgf, pgf_radius =     1    1    5     1.71376
nao2gto_transfer: is, inlz, fittedcut, origincut =     1    1     8.00770     5.00735
nao2gto_transfer: isp, inlz, ipgf, pgf_radius =     1    2    1     5.86225
nao2gto_transfer: isp, inlz, ipgf, pgf_radius =     1    2    2     4.95450
nao2gto_transfer: isp, inlz, ipgf, pgf_radius =     1    2    3     2.47216
nao2gto_transfer: isp, inlz, ipgf, pgf_radius =     1    2    4     2.08936
nao2gto_transfer: isp, inlz, ipgf, pgf_radius =     1    2    5     1.76583
nao2gto_transfer: is, inlz, fittedcut, origincut =     1    2     5.86225     4.41895
nao2gto_transfer: isp, inlz, ipgf, pgf_radius =     1    3    1     9.58222
nao2gto_transfer: isp, inlz, ipgf, pgf_radius =     1    3    2     4.35545
nao2gto_transfer: isp, inlz, ipgf, pgf_radius =     1    3    3     3.65613
nao2gto_transfer: isp, inlz, ipgf, pgf_radius =     1    3    4     3.06880
nao2gto_transfer: is, inlz, fittedcut, origincut =     1    3     9.58222     6.27087
nao2gto_transfer: isp, inlz, ipgf, pgf_radius =     1    4    1     7.43383
nao2gto_transfer: isp, inlz, ipgf, pgf_radius =     1    4    2     3.76609
nao2gto_transfer: isp, inlz, ipgf, pgf_radius =     1    4    3     3.16115
nao2gto_transfer: isp, inlz, ipgf, pgf_radius =     1    4    4     2.65311
nao2gto_transfer: is, inlz, fittedcut, origincut =     1    4     7.43383     5.00735
nao2gto_transfer: isp, inlz, ipgf, pgf_radius =     1    5    1     7.79657
nao2gto_transfer: isp, inlz, ipgf, pgf_radius =     1    5    2     2.53664
nao2gto_transfer: isp, inlz, ipgf, pgf_radius =     1    5    3     0.29862
nao2gto_transfer: is, inlz, fittedcut, origincut =     1    5     7.79657     6.27087
%block NAO2GTO
Si   5
3  0  1  5
       0.179543763     0.766529816
       1.428571429    -0.738302342
       2.000000000    -1.004566820
       2.800000000     1.982436539
       3.920000000    -0.736616451
3  0  2  5
       0.335009542     2.745919238
       0.469013358    -2.059683130
       1.883789851    -2.767628033
       2.637305791     3.385876003
       3.692228108    -1.091102315
3  1  1  4
       0.150000000     0.236476747
       0.684470842     0.803265300
       0.958259179    -0.961002579
       1.341562851     0.311032675
3  1  2  4
       0.244635090     0.486420717
       0.905208197     0.361970708
       1.267291476    -0.570942156
       1.774208066     0.219187269
3  2  1  3
       0.256969853     0.204146654
       2.078564229     0.089743383
     102.000000000     0.056704347
%endblock NAO2GTO
 Use fitted NAOs as new basis
coor:   Atomic-coordinates input format  =     Fractional

siesta: Atomic coordinates (Bohr) and species
siesta:      0.00000   0.00000   0.00000  1        1
siesta:      0.00000   5.13061   5.13061  1        2
siesta:      5.13061   0.00000   5.13061  1        3
siesta:      5.13061   5.13061   0.00000  1        4
siesta:      7.69591   2.56530   7.69591  1        5
siesta:      2.56530   2.56530   2.56530  1        6
siesta:      2.56530   7.69591   7.69591  1        7
siesta:      7.69591   7.69591   2.56530  1        8
siesta:     10.26122   0.00000   0.00000  1        9
siesta:     10.26122   5.13061   5.13061  1       10
siesta:     15.39183   0.00000   5.13061  1       11
siesta:     15.39183   5.13061   0.00000  1       12
siesta:     17.95713   2.56530   7.69591  1       13
siesta:     12.82652   2.56530   2.56530  1       14
siesta:     12.82652   7.69591   7.69591  1       15
siesta:     17.95713   7.69591   2.56530  1       16
siesta:     20.52243   0.00000   0.00000  1       17
siesta:     20.52243   5.13061   5.13061  1       18
siesta:     25.65304   0.00000   5.13061  1       19
siesta:     25.65304   5.13061   0.00000  1       20
siesta:     28.21835   2.56530   7.69591  1       21
siesta:     23.08774   2.56530   2.56530  1       22
siesta:     23.08774   7.69591   7.69591  1       23
siesta:     28.21835   7.69591   2.56530  1       24
siesta:     30.78365   0.00000   0.00000  1       25
siesta:     30.78365   5.13061   5.13061  1       26
siesta:     35.91426   0.00000   5.13061  1       27
siesta:     35.91426   5.13061   0.00000  1       28
siesta:     38.47956   2.56530   7.69591  1       29
siesta:     33.34896   2.56530   2.56530  1       30
siesta:     33.34896   7.69591   7.69591  1       31
siesta:     38.47956   7.69591   2.56530  1       32
siesta:      0.00000  10.26122   0.00000  1       33
siesta:      0.00000  15.39183   5.13061  1       34
siesta:      5.13061  10.26122   5.13061  1       35
siesta:      5.13061  15.39183   0.00000  1       36
siesta:      7.69591  12.82652   7.69591  1       37
siesta:      2.56530  12.82652   2.56530  1       38
siesta:      2.56530  17.95713   7.69591  1       39
siesta:      7.69591  17.95713   2.56530  1       40
siesta:     10.26122  10.26122   0.00000  1       41
siesta:     10.26122  15.39183   5.13061  1       42
siesta:     15.39183  10.26122   5.13061  1       43
siesta:     15.39183  15.39183   0.00000  1       44
siesta:     17.95713  12.82652   7.69591  1       45
siesta:     12.82652  12.82652   2.56530  1       46
siesta:     12.82652  17.95713   7.69591  1       47
siesta:     17.95713  17.95713   2.56530  1       48
siesta:     20.52243  10.26122   0.00000  1       49
siesta:     20.52243  15.39183   5.13061  1       50
siesta:     25.65304  10.26122   5.13061  1       51
siesta:     25.65304  15.39183   0.00000  1       52
siesta:     28.21835  12.82652   7.69591  1       53
siesta:     23.08774  12.82652   2.56530  1       54
siesta:     23.08774  17.95713   7.69591  1       55
siesta:     28.21835  17.95713   2.56530  1       56
siesta:     30.78365  10.26122   0.00000  1       57
siesta:     30.78365  15.39183   5.13061  1       58
siesta:     35.91426  10.26122   5.13061  1       59
siesta:     35.91426  15.39183   0.00000  1       60
siesta:     38.47956  12.82652   7.69591  1       61
siesta:     33.34896  12.82652   2.56530  1       62
siesta:     33.34896  17.95713   7.69591  1       63
siesta:     38.47956  17.95713   2.56530  1       64
siesta:      0.00000  20.52243   0.00000  1       65
siesta:      0.00000  25.65304   5.13061  1       66
siesta:      5.13061  20.52243   5.13061  1       67
siesta:      5.13061  25.65304   0.00000  1       68
siesta:      7.69591  23.08774   7.69591  1       69
siesta:      2.56530  23.08774   2.56530  1       70
siesta:      2.56530  28.21835   7.69591  1       71
siesta:      7.69591  28.21835   2.56530  1       72
siesta:     10.26122  20.52243   0.00000  1       73
siesta:     10.26122  25.65304   5.13061  1       74
siesta:     15.39183  20.52243   5.13061  1       75
siesta:     15.39183  25.65304   0.00000  1       76
siesta:     17.95713  23.08774   7.69591  1       77
siesta:     12.82652  23.08774   2.56530  1       78
siesta:     12.82652  28.21835   7.69591  1       79
siesta:     17.95713  28.21835   2.56530  1       80
siesta:     20.52243  20.52243   0.00000  1       81
siesta:     20.52243  25.65304   5.13061  1       82
siesta:     25.65304  20.52243   5.13061  1       83
siesta:     25.65304  25.65304   0.00000  1       84
siesta:     28.21835  23.08774   7.69591  1       85
siesta:     23.08774  23.08774   2.56530  1       86
siesta:     23.08774  28.21835   7.69591  1       87
siesta:     28.21835  28.21835   2.56530  1       88
siesta:     30.78365  20.52243   0.00000  1       89
siesta:     30.78365  25.65304   5.13061  1       90
siesta:     35.91426  20.52243   5.13061  1       91
siesta:     35.91426  25.65304   0.00000  1       92
siesta:     38.47956  23.08774   7.69591  1       93
siesta:     33.34896  23.08774   2.56530  1       94
siesta:     33.34896  28.21835   7.69591  1       95
siesta:     38.47956  28.21835   2.56530  1       96
siesta:      0.00000  30.78365   0.00000  1       97
siesta:      0.00000  35.91426   5.13061  1       98
siesta:      5.13061  30.78365   5.13061  1       99
siesta:      5.13061  35.91426   0.00000  1      100
siesta:      7.69591  33.34896   7.69591  1      101
siesta:      2.56530  33.34896   2.56530  1      102
siesta:      2.56530  38.47956   7.69591  1      103
siesta:      7.69591  38.47956   2.56530  1      104
siesta:     10.26122  30.78365   0.00000  1      105
siesta:     10.26122  35.91426   5.13061  1      106
siesta:     15.39183  30.78365   5.13061  1      107
siesta:     15.39183  35.91426   0.00000  1      108
siesta:     17.95713  33.34896   7.69591  1      109
siesta:     12.82652  33.34896   2.56530  1      110
siesta:     12.82652  38.47956   7.69591  1      111
siesta:     17.95713  38.47956   2.56530  1      112
siesta:     20.52243  30.78365   0.00000  1      113
siesta:     20.52243  35.91426   5.13061  1      114
siesta:     25.65304  30.78365   5.13061  1      115
siesta:     25.65304  35.91426   0.00000  1      116
siesta:     28.21835  33.34896   7.69591  1      117
siesta:     23.08774  33.34896   2.56530  1      118
siesta:     23.08774  38.47956   7.69591  1      119
siesta:     28.21835  38.47956   2.56530  1      120
siesta:     30.78365  30.78365   0.00000  1      121
siesta:     30.78365  35.91426   5.13061  1      122
siesta:     35.91426  30.78365   5.13061  1      123
siesta:     35.91426  35.91426   0.00000  1      124
siesta:     38.47956  33.34896   7.69591  1      125
siesta:     33.34896  33.34896   2.56530  1      126
siesta:     33.34896  38.47956   7.69591  1      127
siesta:     38.47956  38.47956   2.56530  1      128
siesta:      0.00000   0.00000  10.26122  1      129
siesta:      0.00000   5.13061  15.39183  1      130
siesta:      5.13061   0.00000  15.39183  1      131
siesta:      5.13061   5.13061  10.26122  1      132
siesta:      7.69591   2.56530  17.95713  1      133
siesta:      2.56530   2.56530  12.82652  1      134
siesta:      2.56530   7.69591  17.95713  1      135
siesta:      7.69591   7.69591  12.82652  1      136
siesta:     10.26122   0.00000  10.26122  1      137
siesta:     10.26122   5.13061  15.39183  1      138
siesta:     15.39183   0.00000  15.39183  1      139
siesta:     15.39183   5.13061  10.26122  1      140
siesta:     17.95713   2.56530  17.95713  1      141
siesta:     12.82652   2.56530  12.82652  1      142
siesta:     12.82652   7.69591  17.95713  1      143
siesta:     17.95713   7.69591  12.82652  1      144
siesta:     20.52243   0.00000  10.26122  1      145
siesta:     20.52243   5.13061  15.39183  1      146
siesta:     25.65304   0.00000  15.39183  1      147
siesta:     25.65304   5.13061  10.26122  1      148
siesta:     28.21835   2.56530  17.95713  1      149
siesta:     23.08774   2.56530  12.82652  1      150
siesta:     23.08774   7.69591  17.95713  1      151
siesta:     28.21835   7.69591  12.82652  1      152
siesta:     30.78365   0.00000  10.26122  1      153
siesta:     30.78365   5.13061  15.39183  1      154
siesta:     35.91426   0.00000  15.39183  1      155
siesta:     35.91426   5.13061  10.26122  1      156
siesta:     38.47956   2.56530  17.95713  1      157
siesta:     33.34896   2.56530  12.82652  1      158
siesta:     33.34896   7.69591  17.95713  1      159
siesta:     38.47956   7.69591  12.82652  1      160
siesta:      0.00000  10.26122  10.26122  1      161
siesta:      0.00000  15.39183  15.39183  1      162
siesta:      5.13061  10.26122  15.39183  1      163
siesta:      5.13061  15.39183  10.26122  1      164
siesta:      7.69591  12.82652  17.95713  1      165
siesta:      2.56530  12.82652  12.82652  1      166
siesta:      2.56530  17.95713  17.95713  1      167
siesta:      7.69591  17.95713  12.82652  1      168
siesta:     10.26122  10.26122  10.26122  1      169
siesta:     10.26122  15.39183  15.39183  1      170
siesta:     15.39183  10.26122  15.39183  1      171
siesta:     15.39183  15.39183  10.26122  1      172
siesta:     17.95713  12.82652  17.95713  1      173
siesta:     12.82652  12.82652  12.82652  1      174
siesta:     12.82652  17.95713  17.95713  1      175
siesta:     17.95713  17.95713  12.82652  1      176
siesta:     20.52243  10.26122  10.26122  1      177
siesta:     20.52243  15.39183  15.39183  1      178
siesta:     25.65304  10.26122  15.39183  1      179
siesta:     25.65304  15.39183  10.26122  1      180
siesta:     28.21835  12.82652  17.95713  1      181
siesta:     23.08774  12.82652  12.82652  1      182
siesta:     23.08774  17.95713  17.95713  1      183
siesta:     28.21835  17.95713  12.82652  1      184
siesta:     30.78365  10.26122  10.26122  1      185
siesta:     30.78365  15.39183  15.39183  1      186
siesta:     35.91426  10.26122  15.39183  1      187
siesta:     35.91426  15.39183  10.26122  1      188
siesta:     38.47956  12.82652  17.95713  1      189
siesta:     33.34896  12.82652  12.82652  1      190
siesta:     33.34896  17.95713  17.95713  1      191
siesta:     38.47956  17.95713  12.82652  1      192
siesta:      0.00000  20.52243  10.26122  1      193
siesta:      0.00000  25.65304  15.39183  1      194
siesta:      5.13061  20.52243  15.39183  1      195
siesta:      5.13061  25.65304  10.26122  1      196
siesta:      7.69591  23.08774  17.95713  1      197
siesta:      2.56530  23.08774  12.82652  1      198
siesta:      2.56530  28.21835  17.95713  1      199
siesta:      7.69591  28.21835  12.82652  1      200
siesta:     10.26122  20.52243  10.26122  1      201
siesta:     10.26122  25.65304  15.39183  1      202
siesta:     15.39183  20.52243  15.39183  1      203
siesta:     15.39183  25.65304  10.26122  1      204
siesta:     17.95713  23.08774  17.95713  1      205
siesta:     12.82652  23.08774  12.82652  1      206
siesta:     12.82652  28.21835  17.95713  1      207
siesta:     17.95713  28.21835  12.82652  1      208
siesta:     20.52243  20.52243  10.26122  1      209
siesta:     20.52243  25.65304  15.39183  1      210
siesta:     25.65304  20.52243  15.39183  1      211
siesta:     25.65304  25.65304  10.26122  1      212
siesta:     28.21835  23.08774  17.95713  1      213
siesta:     23.08774  23.08774  12.82652  1      214
siesta:     23.08774  28.21835  17.95713  1      215
siesta:     28.21835  28.21835  12.82652  1      216
siesta:     30.78365  20.52243  10.26122  1      217
siesta:     30.78365  25.65304  15.39183  1      218
siesta:     35.91426  20.52243  15.39183  1      219
siesta:     35.91426  25.65304  10.26122  1      220
siesta:     38.47956  23.08774  17.95713  1      221
siesta:     33.34896  23.08774  12.82652  1      222
siesta:     33.34896  28.21835  17.95713  1      223
siesta:     38.47956  28.21835  12.82652  1      224
siesta:      0.00000  30.78365  10.26122  1      225
siesta:      0.00000  35.91426  15.39183  1      226
siesta:      5.13061  30.78365  15.39183  1      227
siesta:      5.13061  35.91426  10.26122  1      228
siesta:      7.69591  33.34896  17.95713  1      229
siesta:      2.56530  33.34896  12.82652  1      230
siesta:      2.56530  38.47956  17.95713  1      231
siesta:      7.69591  38.47956  12.82652  1      232
siesta:     10.26122  30.78365  10.26122  1      233
siesta:     10.26122  35.91426  15.39183  1      234
siesta:     15.39183  30.78365  15.39183  1      235
siesta:     15.39183  35.91426  10.26122  1      236
siesta:     17.95713  33.34896  17.95713  1      237
siesta:     12.82652  33.34896  12.82652  1      238
siesta:     12.82652  38.47956  17.95713  1      239
siesta:     17.95713  38.47956  12.82652  1      240
siesta:     20.52243  30.78365  10.26122  1      241
siesta:     20.52243  35.91426  15.39183  1      242
siesta:     25.65304  30.78365  15.39183  1      243
siesta:     25.65304  35.91426  10.26122  1      244
siesta:     28.21835  33.34896  17.95713  1      245
siesta:     23.08774  33.34896  12.82652  1      246
siesta:     23.08774  38.47956  17.95713  1      247
siesta:     28.21835  38.47956  12.82652  1      248
siesta:     30.78365  30.78365  10.26122  1      249
siesta:     30.78365  35.91426  15.39183  1      250
siesta:     35.91426  30.78365  15.39183  1      251
siesta:     35.91426  35.91426  10.26122  1      252
siesta:     38.47956  33.34896  17.95713  1      253
siesta:     33.34896  33.34896  12.82652  1      254
siesta:     33.34896  38.47956  17.95713  1      255
siesta:     38.47956  38.47956  12.82652  1      256
siesta:      0.00000   0.00000  20.52243  1      257
siesta:      0.00000   5.13061  25.65304  1      258
siesta:      5.13061   0.00000  25.65304  1      259
siesta:      5.13061   5.13061  20.52243  1      260
siesta:      7.69591   2.56530  28.21835  1      261
siesta:      2.56530   2.56530  23.08774  1      262
siesta:      2.56530   7.69591  28.21835  1      263
siesta:      7.69591   7.69591  23.08774  1      264
siesta:     10.26122   0.00000  20.52243  1      265
siesta:     10.26122   5.13061  25.65304  1      266
siesta:     15.39183   0.00000  25.65304  1      267
siesta:     15.39183   5.13061  20.52243  1      268
siesta:     17.95713   2.56530  28.21835  1      269
siesta:     12.82652   2.56530  23.08774  1      270
siesta:     12.82652   7.69591  28.21835  1      271
siesta:     17.95713   7.69591  23.08774  1      272
siesta:     20.52243   0.00000  20.52243  1      273
siesta:     20.52243   5.13061  25.65304  1      274
siesta:     25.65304   0.00000  25.65304  1      275
siesta:     25.65304   5.13061  20.52243  1      276
siesta:     28.21835   2.56530  28.21835  1      277
siesta:     23.08774   2.56530  23.08774  1      278
siesta:     23.08774   7.69591  28.21835  1      279
siesta:     28.21835   7.69591  23.08774  1      280
siesta:     30.78365   0.00000  20.52243  1      281
siesta:     30.78365   5.13061  25.65304  1      282
siesta:     35.91426   0.00000  25.65304  1      283
siesta:     35.91426   5.13061  20.52243  1      284
siesta:     38.47956   2.56530  28.21835  1      285
siesta:     33.34896   2.56530  23.08774  1      286
siesta:     33.34896   7.69591  28.21835  1      287
siesta:     38.47956   7.69591  23.08774  1      288
siesta:      0.00000  10.26122  20.52243  1      289
siesta:      0.00000  15.39183  25.65304  1      290
siesta:      5.13061  10.26122  25.65304  1      291
siesta:      5.13061  15.39183  20.52243  1      292
siesta:      7.69591  12.82652  28.21835  1      293
siesta:      2.56530  12.82652  23.08774  1      294
siesta:      2.56530  17.95713  28.21835  1      295
siesta:      7.69591  17.95713  23.08774  1      296
siesta:     10.26122  10.26122  20.52243  1      297
siesta:     10.26122  15.39183  25.65304  1      298
siesta:     15.39183  10.26122  25.65304  1      299
siesta:     15.39183  15.39183  20.52243  1      300
siesta:     17.95713  12.82652  28.21835  1      301
siesta:     12.82652  12.82652  23.08774  1      302
siesta:     12.82652  17.95713  28.21835  1      303
siesta:     17.95713  17.95713  23.08774  1      304
siesta:     20.52243  10.26122  20.52243  1      305
siesta:     20.52243  15.39183  25.65304  1      306
siesta:     25.65304  10.26122  25.65304  1      307
siesta:     25.65304  15.39183  20.52243  1      308
siesta:     28.21835  12.82652  28.21835  1      309
siesta:     23.08774  12.82652  23.08774  1      310
siesta:     23.08774  17.95713  28.21835  1      311
siesta:     28.21835  17.95713  23.08774  1      312
siesta:     30.78365  10.26122  20.52243  1      313
siesta:     30.78365  15.39183  25.65304  1      314
siesta:     35.91426  10.26122  25.65304  1      315
siesta:     35.91426  15.39183  20.52243  1      316
siesta:     38.47956  12.82652  28.21835  1      317
siesta:     33.34896  12.82652  23.08774  1      318
siesta:     33.34896  17.95713  28.21835  1      319
siesta:     38.47956  17.95713  23.08774  1      320
siesta:      0.00000  20.52243  20.52243  1      321
siesta:      0.00000  25.65304  25.65304  1      322
siesta:      5.13061  20.52243  25.65304  1      323
siesta:      5.13061  25.65304  20.52243  1      324
siesta:      7.69591  23.08774  28.21835  1      325
siesta:      2.56530  23.08774  23.08774  1      326
siesta:      2.56530  28.21835  28.21835  1      327
siesta:      7.69591  28.21835  23.08774  1      328
siesta:     10.26122  20.52243  20.52243  1      329
siesta:     10.26122  25.65304  25.65304  1      330
siesta:     15.39183  20.52243  25.65304  1      331
siesta:     15.39183  25.65304  20.52243  1      332
siesta:     17.95713  23.08774  28.21835  1      333
siesta:     12.82652  23.08774  23.08774  1      334
siesta:     12.82652  28.21835  28.21835  1      335
siesta:     17.95713  28.21835  23.08774  1      336
siesta:     20.52243  20.52243  20.52243  1      337
siesta:     20.52243  25.65304  25.65304  1      338
siesta:     25.65304  20.52243  25.65304  1      339
siesta:     25.65304  25.65304  20.52243  1      340
siesta:     28.21835  23.08774  28.21835  1      341
siesta:     23.08774  23.08774  23.08774  1      342
siesta:     23.08774  28.21835  28.21835  1      343
siesta:     28.21835  28.21835  23.08774  1      344
siesta:     30.78365  20.52243  20.52243  1      345
siesta:     30.78365  25.65304  25.65304  1      346
siesta:     35.91426  20.52243  25.65304  1      347
siesta:     35.91426  25.65304  20.52243  1      348
siesta:     38.47956  23.08774  28.21835  1      349
siesta:     33.34896  23.08774  23.08774  1      350
siesta:     33.34896  28.21835  28.21835  1      351
siesta:     38.47956  28.21835  23.08774  1      352
siesta:      0.00000  30.78365  20.52243  1      353
siesta:      0.00000  35.91426  25.65304  1      354
siesta:      5.13061  30.78365  25.65304  1      355
siesta:      5.13061  35.91426  20.52243  1      356
siesta:      7.69591  33.34896  28.21835  1      357
siesta:      2.56530  33.34896  23.08774  1      358
siesta:      2.56530  38.47956  28.21835  1      359
siesta:      7.69591  38.47956  23.08774  1      360
siesta:     10.26122  30.78365  20.52243  1      361
siesta:     10.26122  35.91426  25.65304  1      362
siesta:     15.39183  30.78365  25.65304  1      363
siesta:     15.39183  35.91426  20.52243  1      364
siesta:     17.95713  33.34896  28.21835  1      365
siesta:     12.82652  33.34896  23.08774  1      366
siesta:     12.82652  38.47956  28.21835  1      367
siesta:     17.95713  38.47956  23.08774  1      368
siesta:     20.52243  30.78365  20.52243  1      369
siesta:     20.52243  35.91426  25.65304  1      370
siesta:     25.65304  30.78365  25.65304  1      371
siesta:     25.65304  35.91426  20.52243  1      372
siesta:     28.21835  33.34896  28.21835  1      373
siesta:     23.08774  33.34896  23.08774  1      374
siesta:     23.08774  38.47956  28.21835  1      375
siesta:     28.21835  38.47956  23.08774  1      376
siesta:     30.78365  30.78365  20.52243  1      377
siesta:     30.78365  35.91426  25.65304  1      378
siesta:     35.91426  30.78365  25.65304  1      379
siesta:     35.91426  35.91426  20.52243  1      380
siesta:     38.47956  33.34896  28.21835  1      381
siesta:     33.34896  33.34896  23.08774  1      382
siesta:     33.34896  38.47956  28.21835  1      383
siesta:     38.47956  38.47956  23.08774  1      384
siesta:      0.00000   0.00000  30.78365  1      385
siesta:      0.00000   5.13061  35.91426  1      386
siesta:      5.13061   0.00000  35.91426  1      387
siesta:      5.13061   5.13061  30.78365  1      388
siesta:      7.69591   2.56530  38.47956  1      389
siesta:      2.56530   2.56530  33.34896  1      390
siesta:      2.56530   7.69591  38.47956  1      391
siesta:      7.69591   7.69591  33.34896  1      392
siesta:     10.26122   0.00000  30.78365  1      393
siesta:     10.26122   5.13061  35.91426  1      394
siesta:     15.39183   0.00000  35.91426  1      395
siesta:     15.39183   5.13061  30.78365  1      396
siesta:     17.95713   2.56530  38.47956  1      397
siesta:     12.82652   2.56530  33.34896  1      398
siesta:     12.82652   7.69591  38.47956  1      399
siesta:     17.95713   7.69591  33.34896  1      400
siesta:     20.52243   0.00000  30.78365  1      401
siesta:     20.52243   5.13061  35.91426  1      402
siesta:     25.65304   0.00000  35.91426  1      403
siesta:     25.65304   5.13061  30.78365  1      404
siesta:     28.21835   2.56530  38.47956  1      405
siesta:     23.08774   2.56530  33.34896  1      406
siesta:     23.08774   7.69591  38.47956  1      407
siesta:     28.21835   7.69591  33.34896  1      408
siesta:     30.78365   0.00000  30.78365  1      409
siesta:     30.78365   5.13061  35.91426  1      410
siesta:     35.91426   0.00000  35.91426  1      411
siesta:     35.91426   5.13061  30.78365  1      412
siesta:     38.47956   2.56530  38.47956  1      413
siesta:     33.34896   2.56530  33.34896  1      414
siesta:     33.34896   7.69591  38.47956  1      415
siesta:     38.47956   7.69591  33.34896  1      416
siesta:      0.00000  10.26122  30.78365  1      417
siesta:      0.00000  15.39183  35.91426  1      418
siesta:      5.13061  10.26122  35.91426  1      419
siesta:      5.13061  15.39183  30.78365  1      420
siesta:      7.69591  12.82652  38.47956  1      421
siesta:      2.56530  12.82652  33.34896  1      422
siesta:      2.56530  17.95713  38.47956  1      423
siesta:      7.69591  17.95713  33.34896  1      424
siesta:     10.26122  10.26122  30.78365  1      425
siesta:     10.26122  15.39183  35.91426  1      426
siesta:     15.39183  10.26122  35.91426  1      427
siesta:     15.39183  15.39183  30.78365  1      428
siesta:     17.95713  12.82652  38.47956  1      429
siesta:     12.82652  12.82652  33.34896  1      430
siesta:     12.82652  17.95713  38.47956  1      431
siesta:     17.95713  17.95713  33.34896  1      432
siesta:     20.52243  10.26122  30.78365  1      433
siesta:     20.52243  15.39183  35.91426  1      434
siesta:     25.65304  10.26122  35.91426  1      435
siesta:     25.65304  15.39183  30.78365  1      436
siesta:     28.21835  12.82652  38.47956  1      437
siesta:     23.08774  12.82652  33.34896  1      438
siesta:     23.08774  17.95713  38.47956  1      439
siesta:     28.21835  17.95713  33.34896  1      440
siesta:     30.78365  10.26122  30.78365  1      441
siesta:     30.78365  15.39183  35.91426  1      442
siesta:     35.91426  10.26122  35.91426  1      443
siesta:     35.91426  15.39183  30.78365  1      444
siesta:     38.47956  12.82652  38.47956  1      445
siesta:     33.34896  12.82652  33.34896  1      446
siesta:     33.34896  17.95713  38.47956  1      447
siesta:     38.47956  17.95713  33.34896  1      448
siesta:      0.00000  20.52243  30.78365  1      449
siesta:      0.00000  25.65304  35.91426  1      450
siesta:      5.13061  20.52243  35.91426  1      451
siesta:      5.13061  25.65304  30.78365  1      452
siesta:      7.69591  23.08774  38.47956  1      453
siesta:      2.56530  23.08774  33.34896  1      454
siesta:      2.56530  28.21835  38.47956  1      455
siesta:      7.69591  28.21835  33.34896  1      456
siesta:     10.26122  20.52243  30.78365  1      457
siesta:     10.26122  25.65304  35.91426  1      458
siesta:     15.39183  20.52243  35.91426  1      459
siesta:     15.39183  25.65304  30.78365  1      460
siesta:     17.95713  23.08774  38.47956  1      461
siesta:     12.82652  23.08774  33.34896  1      462
siesta:     12.82652  28.21835  38.47956  1      463
siesta:     17.95713  28.21835  33.34896  1      464
siesta:     20.52243  20.52243  30.78365  1      465
siesta:     20.52243  25.65304  35.91426  1      466
siesta:     25.65304  20.52243  35.91426  1      467
siesta:     25.65304  25.65304  30.78365  1      468
siesta:     28.21835  23.08774  38.47956  1      469
siesta:     23.08774  23.08774  33.34896  1      470
siesta:     23.08774  28.21835  38.47956  1      471
siesta:     28.21835  28.21835  33.34896  1      472
siesta:     30.78365  20.52243  30.78365  1      473
siesta:     30.78365  25.65304  35.91426  1      474
siesta:     35.91426  20.52243  35.91426  1      475
siesta:     35.91426  25.65304  30.78365  1      476
siesta:     38.47956  23.08774  38.47956  1      477
siesta:     33.34896  23.08774  33.34896  1      478
siesta:     33.34896  28.21835  38.47956  1      479
siesta:     38.47956  28.21835  33.34896  1      480
siesta:      0.00000  30.78365  30.78365  1      481
siesta:      0.00000  35.91426  35.91426  1      482
siesta:      5.13061  30.78365  35.91426  1      483
siesta:      5.13061  35.91426  30.78365  1      484
siesta:      7.69591  33.34896  38.47956  1      485
siesta:      2.56530  33.34896  33.34896  1      486
siesta:      2.56530  38.47956  38.47956  1      487
siesta:      7.69591  38.47956  33.34896  1      488
siesta:     10.26122  30.78365  30.78365  1      489
siesta:     10.26122  35.91426  35.91426  1      490
siesta:     15.39183  30.78365  35.91426  1      491
siesta:     15.39183  35.91426  30.78365  1      492
siesta:     17.95713  33.34896  38.47956  1      493
siesta:     12.82652  33.34896  33.34896  1      494
siesta:     12.82652  38.47956  38.47956  1      495
siesta:     17.95713  38.47956  33.34896  1      496
siesta:     20.52243  30.78365  30.78365  1      497
siesta:     20.52243  35.91426  35.91426  1      498
siesta:     25.65304  30.78365  35.91426  1      499
siesta:     25.65304  35.91426  30.78365  1      500
siesta:     28.21835  33.34896  38.47956  1      501
siesta:     23.08774  33.34896  33.34896  1      502
siesta:     23.08774  38.47956  38.47956  1      503
siesta:     28.21835  38.47956  33.34896  1      504
siesta:     30.78365  30.78365  30.78365  1      505
siesta:     30.78365  35.91426  35.91426  1      506
siesta:     35.91426  30.78365  35.91426  1      507
siesta:     35.91426  35.91426  30.78365  1      508
siesta:     38.47956  33.34896  38.47956  1      509
siesta:     33.34896  33.34896  33.34896  1      510
siesta:     33.34896  38.47956  38.47956  1      511
siesta:     38.47956  38.47956  33.34896  1      512

siesta: System type = bulk      

initatomlists: Number of atoms, orbitals, and projectors:    512  6656  8192

siesta: ******************** Simulation parameters ****************************
siesta:
siesta: The following are some of the parameters of the simulation.
siesta: A complete list of the parameters used, including default values,
siesta: can be found in file out.fdf
siesta:
redata: Non-Collinear-spin run           =     F
redata: SpinPolarized (Up/Down) run      =     F
redata: Number of spin components        =     1
redata: Long output                      =     F
redata: Number of Atomic Species         =        1
redata: Charge density info will appear in .RHO file
redata: Write Mulliken Pop.              =     NO
redata: Mesh Cutoff                      =   150.0000  Ry
redata: Net charge of the system         =     0.0000 |e|
redata: Max. number of SCF Iter          =       50
redata: Performing Pulay mixing using    =     3 iterations
redata: Mix DM in first SCF step ?       =     F
redata: Write Pulay info on disk?        =     F
redata: Discard 1st Pulay DM after  kick =     F
redata: New DM Mixing Weight             =     0.3000
redata: New DM Occupancy tolerance       = 0.000000000001
redata: No kicks to SCF
redata: DM Mixing Weight for Kicks       =     0.5000
redata: DM Tolerance for SCF             =     0.000100
redata: Require Energy convergence for SCF =     F
redata: DM Energy tolerance for SCF      =     0.000100 eV
redata: Require Harris convergence for SCF =     F
redata: DM Harris energy tolerance for SCF =     0.000100 eV
redata: Using Saved Data (generic)   =     F
redata: Use continuation files for DM    =     F
redata: Neglect nonoverlap interactions  =     F
redata: Method of Calculation            =     Diagonalization
redata: Divide and Conquer               =     T
redata: Electronic Temperature           =     0.0018  Ry
redata: Fix the spin of the system       =     F
redata: Dynamics option                  =     CG coord. optimization
redata: Variable cell                    =     F
redata: Use continuation files for CG    =     F
redata: Max atomic displ per move        =     0.2000  Bohr
redata: Maximum number of CG moves       =        0
redata: Force tolerance                  =     0.0004  Ry/Bohr
redata: ***********************************************************************
Total number of electrons:  2048.000000
Total ionic charge:  2048.000000

* ProcessorY, Blocksize:   12  24

 Kpoints in:            1 . Kpoints trimmed:            1

siesta: k-grid: Number of k-points =     1
siesta: k-grid: Cutoff (effective) =    10.860 Ang
siesta: k-grid: Supercell and displacements
siesta: k-grid:    1   0   0      0.000
siesta: k-grid:    0   1   0      0.000
siesta: k-grid:    0   0   1      0.000

* Maximum dynamic memory allocated =     8 MB

siesta:                 ==============================
                            Begin CG move =      0
                        ==============================

outcoor: Atomic coordinates (fractional):                   
    0.00000000    0.00000000    0.00000000   1       1  Si
    0.00000000    0.12500000    0.12500000   1       2  Si
    0.12500000    0.00000000    0.12500000   1       3  Si
    0.12500000    0.12500000    0.00000000   1       4  Si
    0.18750000    0.06250000    0.18750000   1       5  Si
    0.06250000    0.06250000    0.06250000   1       6  Si
    0.06250000    0.18750000    0.18750000   1       7  Si
    0.18750000    0.18750000    0.06250000   1       8  Si
    0.25000000    0.00000000    0.00000000   1       9  Si
    0.25000000    0.12500000    0.12500000   1      10  Si
    0.37500000    0.00000000    0.12500000   1      11  Si
    0.37500000    0.12500000    0.00000000   1      12  Si
    0.43750000    0.06250000    0.18750000   1      13  Si
    0.31250000    0.06250000    0.06250000   1      14  Si
    0.31250000    0.18750000    0.18750000   1      15  Si
    0.43750000    0.18750000    0.06250000   1      16  Si
    0.50000000    0.00000000    0.00000000   1      17  Si
    0.50000000    0.12500000    0.12500000   1      18  Si
    0.62500000    0.00000000    0.12500000   1      19  Si
    0.62500000    0.12500000    0.00000000   1      20  Si
    0.68750000    0.06250000    0.18750000   1      21  Si
    0.56250000    0.06250000    0.06250000   1      22  Si
    0.56250000    0.18750000    0.18750000   1      23  Si
    0.68750000    0.18750000    0.06250000   1      24  Si
    0.75000000    0.00000000    0.00000000   1      25  Si
    0.75000000    0.12500000    0.12500000   1      26  Si
    0.87500000    0.00000000    0.12500000   1      27  Si
    0.87500000    0.12500000    0.00000000   1      28  Si
    0.93750000    0.06250000    0.18750000   1      29  Si
    0.81250000    0.06250000    0.06250000   1      30  Si
    0.81250000    0.18750000    0.18750000   1      31  Si
    0.93750000    0.18750000    0.06250000   1      32  Si
    0.00000000    0.25000000    0.00000000   1      33  Si
    0.00000000    0.37500000    0.12500000   1      34  Si
    0.12500000    0.25000000    0.12500000   1      35  Si
    0.12500000    0.37500000    0.00000000   1      36  Si
    0.18750000    0.31250000    0.18750000   1      37  Si
    0.06250000    0.31250000    0.06250000   1      38  Si
    0.06250000    0.43750000    0.18750000   1      39  Si
    0.18750000    0.43750000    0.06250000   1      40  Si
    0.25000000    0.25000000    0.00000000   1      41  Si
    0.25000000    0.37500000    0.12500000   1      42  Si
    0.37500000    0.25000000    0.12500000   1      43  Si
    0.37500000    0.37500000    0.00000000   1      44  Si
    0.43750000    0.31250000    0.18750000   1      45  Si
    0.31250000    0.31250000    0.06250000   1      46  Si
    0.31250000    0.43750000    0.18750000   1      47  Si
    0.43750000    0.43750000    0.06250000   1      48  Si
    0.50000000    0.25000000    0.00000000   1      49  Si
    0.50000000    0.37500000    0.12500000   1      50  Si
    0.62500000    0.25000000    0.12500000   1      51  Si
    0.62500000    0.37500000    0.00000000   1      52  Si
    0.68750000    0.31250000    0.18750000   1      53  Si
    0.56250000    0.31250000    0.06250000   1      54  Si
    0.56250000    0.43750000    0.18750000   1      55  Si
    0.68750000    0.43750000    0.06250000   1      56  Si
    0.75000000    0.25000000    0.00000000   1      57  Si
    0.75000000    0.37500000    0.12500000   1      58  Si
    0.87500000    0.25000000    0.12500000   1      59  Si
    0.87500000    0.37500000    0.00000000   1      60  Si
    0.93750000    0.31250000    0.18750000   1      61  Si
    0.81250000    0.31250000    0.06250000   1      62  Si
    0.81250000    0.43750000    0.18750000   1      63  Si
    0.93750000    0.43750000    0.06250000   1      64  Si
    0.00000000    0.50000000    0.00000000   1      65  Si
    0.00000000    0.62500000    0.12500000   1      66  Si
    0.12500000    0.50000000    0.12500000   1      67  Si
    0.12500000    0.62500000    0.00000000   1      68  Si
    0.18750000    0.56250000    0.18750000   1      69  Si
    0.06250000    0.56250000    0.06250000   1      70  Si
    0.06250000    0.68750000    0.18750000   1      71  Si
    0.18750000    0.68750000    0.06250000   1      72  Si
    0.25000000    0.50000000    0.00000000   1      73  Si
    0.25000000    0.62500000    0.12500000   1      74  Si
    0.37500000    0.50000000    0.12500000   1      75  Si
    0.37500000    0.62500000    0.00000000   1      76  Si
    0.43750000    0.56250000    0.18750000   1      77  Si
    0.31250000    0.56250000    0.06250000   1      78  Si
    0.31250000    0.68750000    0.18750000   1      79  Si
    0.43750000    0.68750000    0.06250000   1      80  Si
    0.50000000    0.50000000    0.00000000   1      81  Si
    0.50000000    0.62500000    0.12500000   1      82  Si
    0.62500000    0.50000000    0.12500000   1      83  Si
    0.62500000    0.62500000    0.00000000   1      84  Si
    0.68750000    0.56250000    0.18750000   1      85  Si
    0.56250000    0.56250000    0.06250000   1      86  Si
    0.56250000    0.68750000    0.18750000   1      87  Si
    0.68750000    0.68750000    0.06250000   1      88  Si
    0.75000000    0.50000000    0.00000000   1      89  Si
    0.75000000    0.62500000    0.12500000   1      90  Si
    0.87500000    0.50000000    0.12500000   1      91  Si
    0.87500000    0.62500000    0.00000000   1      92  Si
    0.93750000    0.56250000    0.18750000   1      93  Si
    0.81250000    0.56250000    0.06250000   1      94  Si
    0.81250000    0.68750000    0.18750000   1      95  Si
    0.93750000    0.68750000    0.06250000   1      96  Si
    0.00000000    0.75000000    0.00000000   1      97  Si
    0.00000000    0.87500000    0.12500000   1      98  Si
    0.12500000    0.75000000    0.12500000   1      99  Si
    0.12500000    0.87500000    0.00000000   1     100  Si
    0.18750000    0.81250000    0.18750000   1     101  Si
    0.06250000    0.81250000    0.06250000   1     102  Si
    0.06250000    0.93750000    0.18750000   1     103  Si
    0.18750000    0.93750000    0.06250000   1     104  Si
    0.25000000    0.75000000    0.00000000   1     105  Si
    0.25000000    0.87500000    0.12500000   1     106  Si
    0.37500000    0.75000000    0.12500000   1     107  Si
    0.37500000    0.87500000    0.00000000   1     108  Si
    0.43750000    0.81250000    0.18750000   1     109  Si
    0.31250000    0.81250000    0.06250000   1     110  Si
    0.31250000    0.93750000    0.18750000   1     111  Si
    0.43750000    0.93750000    0.06250000   1     112  Si
    0.50000000    0.75000000    0.00000000   1     113  Si
    0.50000000    0.87500000    0.12500000   1     114  Si
    0.62500000    0.75000000    0.12500000   1     115  Si
    0.62500000    0.87500000    0.00000000   1     116  Si
    0.68750000    0.81250000    0.18750000   1     117  Si
    0.56250000    0.81250000    0.06250000   1     118  Si
    0.56250000    0.93750000    0.18750000   1     119  Si
    0.68750000    0.93750000    0.06250000   1     120  Si
    0.75000000    0.75000000    0.00000000   1     121  Si
    0.75000000    0.87500000    0.12500000   1     122  Si
    0.87500000    0.75000000    0.12500000   1     123  Si
    0.87500000    0.87500000    0.00000000   1     124  Si
    0.93750000    0.81250000    0.18750000   1     125  Si
    0.81250000    0.81250000    0.06250000   1     126  Si
    0.81250000    0.93750000    0.18750000   1     127  Si
    0.93750000    0.93750000    0.06250000   1     128  Si
    0.00000000    0.00000000    0.25000000   1     129  Si
    0.00000000    0.12500000    0.37500000   1     130  Si
    0.12500000    0.00000000    0.37500000   1     131  Si
    0.12500000    0.12500000    0.25000000   1     132  Si
    0.18750000    0.06250000    0.43750000   1     133  Si
    0.06250000    0.06250000    0.31250000   1     134  Si
    0.06250000    0.18750000    0.43750000   1     135  Si
    0.18750000    0.18750000    0.31250000   1     136  Si
    0.25000000    0.00000000    0.25000000   1     137  Si
    0.25000000    0.12500000    0.37500000   1     138  Si
    0.37500000    0.00000000    0.37500000   1     139  Si
    0.37500000    0.12500000    0.25000000   1     140  Si
    0.43750000    0.06250000    0.43750000   1     141  Si
    0.31250000    0.06250000    0.31250000   1     142  Si
    0.31250000    0.18750000    0.43750000   1     143  Si
    0.43750000    0.18750000    0.31250000   1     144  Si
    0.50000000    0.00000000    0.25000000   1     145  Si
    0.50000000    0.12500000    0.37500000   1     146  Si
    0.62500000    0.00000000    0.37500000   1     147  Si
    0.62500000    0.12500000    0.25000000   1     148  Si
    0.68750000    0.06250000    0.43750000   1     149  Si
    0.56250000    0.06250000    0.31250000   1     150  Si
    0.56250000    0.18750000    0.43750000   1     151  Si
    0.68750000    0.18750000    0.31250000   1     152  Si
    0.75000000    0.00000000    0.25000000   1     153  Si
    0.75000000    0.12500000    0.37500000   1     154  Si
    0.87500000    0.00000000    0.37500000   1     155  Si
    0.87500000    0.12500000    0.25000000   1     156  Si
    0.93750000    0.06250000    0.43750000   1     157  Si
    0.81250000    0.06250000    0.31250000   1     158  Si
    0.81250000    0.18750000    0.43750000   1     159  Si
    0.93750000    0.18750000    0.31250000   1     160  Si
    0.00000000    0.25000000    0.25000000   1     161  Si
    0.00000000    0.37500000    0.37500000   1     162  Si
    0.12500000    0.25000000    0.37500000   1     163  Si
    0.12500000    0.37500000    0.25000000   1     164  Si
    0.18750000    0.31250000    0.43750000   1     165  Si
    0.06250000    0.31250000    0.31250000   1     166  Si
    0.06250000    0.43750000    0.43750000   1     167  Si
    0.18750000    0.43750000    0.31250000   1     168  Si
    0.25000000    0.25000000    0.25000000   1     169  Si
    0.25000000    0.37500000    0.37500000   1     170  Si
    0.37500000    0.25000000    0.37500000   1     171  Si
    0.37500000    0.37500000    0.25000000   1     172  Si
    0.43750000    0.31250000    0.43750000   1     173  Si
    0.31250000    0.31250000    0.31250000   1     174  Si
    0.31250000    0.43750000    0.43750000   1     175  Si
    0.43750000    0.43750000    0.31250000   1     176  Si
    0.50000000    0.25000000    0.25000000   1     177  Si
    0.50000000    0.37500000    0.37500000   1     178  Si
    0.62500000    0.25000000    0.37500000   1     179  Si
    0.62500000    0.37500000    0.25000000   1     180  Si
    0.68750000    0.31250000    0.43750000   1     181  Si
    0.56250000    0.31250000    0.31250000   1     182  Si
    0.56250000    0.43750000    0.43750000   1     183  Si
    0.68750000    0.43750000    0.31250000   1     184  Si
    0.75000000    0.25000000    0.25000000   1     185  Si
    0.75000000    0.37500000    0.37500000   1     186  Si
    0.87500000    0.25000000    0.37500000   1     187  Si
    0.87500000    0.37500000    0.25000000   1     188  Si
    0.93750000    0.31250000    0.43750000   1     189  Si
    0.81250000    0.31250000    0.31250000   1     190  Si
    0.81250000    0.43750000    0.43750000   1     191  Si
    0.93750000    0.43750000    0.31250000   1     192  Si
    0.00000000    0.50000000    0.25000000   1     193  Si
    0.00000000    0.62500000    0.37500000   1     194  Si
    0.12500000    0.50000000    0.37500000   1     195  Si
    0.12500000    0.62500000    0.25000000   1     196  Si
    0.18750000    0.56250000    0.43750000   1     197  Si
    0.06250000    0.56250000    0.31250000   1     198  Si
    0.06250000    0.68750000    0.43750000   1     199  Si
    0.18750000    0.68750000    0.31250000   1     200  Si
    0.25000000    0.50000000    0.25000000   1     201  Si
    0.25000000    0.62500000    0.37500000   1     202  Si
    0.37500000    0.50000000    0.37500000   1     203  Si
    0.37500000    0.62500000    0.25000000   1     204  Si
    0.43750000    0.56250000    0.43750000   1     205  Si
    0.31250000    0.56250000    0.31250000   1     206  Si
    0.31250000    0.68750000    0.43750000   1     207  Si
    0.43750000    0.68750000    0.31250000   1     208  Si
    0.50000000    0.50000000    0.25000000   1     209  Si
    0.50000000    0.62500000    0.37500000   1     210  Si
    0.62500000    0.50000000    0.37500000   1     211  Si
    0.62500000    0.62500000    0.25000000   1     212  Si
    0.68750000    0.56250000    0.43750000   1     213  Si
    0.56250000    0.56250000    0.31250000   1     214  Si
    0.56250000    0.68750000    0.43750000   1     215  Si
    0.68750000    0.68750000    0.31250000   1     216  Si
    0.75000000    0.50000000    0.25000000   1     217  Si
    0.75000000    0.62500000    0.37500000   1     218  Si
    0.87500000    0.50000000    0.37500000   1     219  Si
    0.87500000    0.62500000    0.25000000   1     220  Si
    0.93750000    0.56250000    0.43750000   1     221  Si
    0.81250000    0.56250000    0.31250000   1     222  Si
    0.81250000    0.68750000    0.43750000   1     223  Si
    0.93750000    0.68750000    0.31250000   1     224  Si
    0.00000000    0.75000000    0.25000000   1     225  Si
    0.00000000    0.87500000    0.37500000   1     226  Si
    0.12500000    0.75000000    0.37500000   1     227  Si
    0.12500000    0.87500000    0.25000000   1     228  Si
    0.18750000    0.81250000    0.43750000   1     229  Si
    0.06250000    0.81250000    0.31250000   1     230  Si
    0.06250000    0.93750000    0.43750000   1     231  Si
    0.18750000    0.93750000    0.31250000   1     232  Si
    0.25000000    0.75000000    0.25000000   1     233  Si
    0.25000000    0.87500000    0.37500000   1     234  Si
    0.37500000    0.75000000    0.37500000   1     235  Si
    0.37500000    0.87500000    0.25000000   1     236  Si
    0.43750000    0.81250000    0.43750000   1     237  Si
    0.31250000    0.81250000    0.31250000   1     238  Si
    0.31250000    0.93750000    0.43750000   1     239  Si
    0.43750000    0.93750000    0.31250000   1     240  Si
    0.50000000    0.75000000    0.25000000   1     241  Si
    0.50000000    0.87500000    0.37500000   1     242  Si
    0.62500000    0.75000000    0.37500000   1     243  Si
    0.62500000    0.87500000    0.25000000   1     244  Si
    0.68750000    0.81250000    0.43750000   1     245  Si
    0.56250000    0.81250000    0.31250000   1     246  Si
    0.56250000    0.93750000    0.43750000   1     247  Si
    0.68750000    0.93750000    0.31250000   1     248  Si
    0.75000000    0.75000000    0.25000000   1     249  Si
    0.75000000    0.87500000    0.37500000   1     250  Si
    0.87500000    0.75000000    0.37500000   1     251  Si
    0.87500000    0.87500000    0.25000000   1     252  Si
    0.93750000    0.81250000    0.43750000   1     253  Si
    0.81250000    0.81250000    0.31250000   1     254  Si
    0.81250000    0.93750000    0.43750000   1     255  Si
    0.93750000    0.93750000    0.31250000   1     256  Si
    0.00000000    0.00000000    0.50000000   1     257  Si
    0.00000000    0.12500000    0.62500000   1     258  Si
    0.12500000    0.00000000    0.62500000   1     259  Si
    0.12500000    0.12500000    0.50000000   1     260  Si
    0.18750000    0.06250000    0.68750000   1     261  Si
    0.06250000    0.06250000    0.56250000   1     262  Si
    0.06250000    0.18750000    0.68750000   1     263  Si
    0.18750000    0.18750000    0.56250000   1     264  Si
    0.25000000    0.00000000    0.50000000   1     265  Si
    0.25000000    0.12500000    0.62500000   1     266  Si
    0.37500000    0.00000000    0.62500000   1     267  Si
    0.37500000    0.12500000    0.50000000   1     268  Si
    0.43750000    0.06250000    0.68750000   1     269  Si
    0.31250000    0.06250000    0.56250000   1     270  Si
    0.31250000    0.18750000    0.68750000   1     271  Si
    0.43750000    0.18750000    0.56250000   1     272  Si
    0.50000000    0.00000000    0.50000000   1     273  Si
    0.50000000    0.12500000    0.62500000   1     274  Si
    0.62500000    0.00000000    0.62500000   1     275  Si
    0.62500000    0.12500000    0.50000000   1     276  Si
    0.68750000    0.06250000    0.68750000   1     277  Si
    0.56250000    0.06250000    0.56250000   1     278  Si
    0.56250000    0.18750000    0.68750000   1     279  Si
    0.68750000    0.18750000    0.56250000   1     280  Si
    0.75000000    0.00000000    0.50000000   1     281  Si
    0.75000000    0.12500000    0.62500000   1     282  Si
    0.87500000    0.00000000    0.62500000   1     283  Si
    0.87500000    0.12500000    0.50000000   1     284  Si
    0.93750000    0.06250000    0.68750000   1     285  Si
    0.81250000    0.06250000    0.56250000   1     286  Si
    0.81250000    0.18750000    0.68750000   1     287  Si
    0.93750000    0.18750000    0.56250000   1     288  Si
    0.00000000    0.25000000    0.50000000   1     289  Si
    0.00000000    0.37500000    0.62500000   1     290  Si
    0.12500000    0.25000000    0.62500000   1     291  Si
    0.12500000    0.37500000    0.50000000   1     292  Si
    0.18750000    0.31250000    0.68750000   1     293  Si
    0.06250000    0.31250000    0.56250000   1     294  Si
    0.06250000    0.43750000    0.68750000   1     295  Si
    0.18750000    0.43750000    0.56250000   1     296  Si
    0.25000000    0.25000000    0.50000000   1     297  Si
    0.25000000    0.37500000    0.62500000   1     298  Si
    0.37500000    0.25000000    0.62500000   1     299  Si
    0.37500000    0.37500000    0.50000000   1     300  Si
    0.43750000    0.31250000    0.68750000   1     301  Si
    0.31250000    0.31250000    0.56250000   1     302  Si
    0.31250000    0.43750000    0.68750000   1     303  Si
    0.43750000    0.43750000    0.56250000   1     304  Si
    0.50000000    0.25000000    0.50000000   1     305  Si
    0.50000000    0.37500000    0.62500000   1     306  Si
    0.62500000    0.25000000    0.62500000   1     307  Si
    0.62500000    0.37500000    0.50000000   1     308  Si
    0.68750000    0.31250000    0.68750000   1     309  Si
    0.56250000    0.31250000    0.56250000   1     310  Si
    0.56250000    0.43750000    0.68750000   1     311  Si
    0.68750000    0.43750000    0.56250000   1     312  Si
    0.75000000    0.25000000    0.50000000   1     313  Si
    0.75000000    0.37500000    0.62500000   1     314  Si
    0.87500000    0.25000000    0.62500000   1     315  Si
    0.87500000    0.37500000    0.50000000   1     316  Si
    0.93750000    0.31250000    0.68750000   1     317  Si
    0.81250000    0.31250000    0.56250000   1     318  Si
    0.81250000    0.43750000    0.68750000   1     319  Si
    0.93750000    0.43750000    0.56250000   1     320  Si
    0.00000000    0.50000000    0.50000000   1     321  Si
    0.00000000    0.62500000    0.62500000   1     322  Si
    0.12500000    0.50000000    0.62500000   1     323  Si
    0.12500000    0.62500000    0.50000000   1     324  Si
    0.18750000    0.56250000    0.68750000   1     325  Si
    0.06250000    0.56250000    0.56250000   1     326  Si
    0.06250000    0.68750000    0.68750000   1     327  Si
    0.18750000    0.68750000    0.56250000   1     328  Si
    0.25000000    0.50000000    0.50000000   1     329  Si
    0.25000000    0.62500000    0.62500000   1     330  Si
    0.37500000    0.50000000    0.62500000   1     331  Si
    0.37500000    0.62500000    0.50000000   1     332  Si
    0.43750000    0.56250000    0.68750000   1     333  Si
    0.31250000    0.56250000    0.56250000   1     334  Si
    0.31250000    0.68750000    0.68750000   1     335  Si
    0.43750000    0.68750000    0.56250000   1     336  Si
    0.50000000    0.50000000    0.50000000   1     337  Si
    0.50000000    0.62500000    0.62500000   1     338  Si
    0.62500000    0.50000000    0.62500000   1     339  Si
    0.62500000    0.62500000    0.50000000   1     340  Si
    0.68750000    0.56250000    0.68750000   1     341  Si
    0.56250000    0.56250000    0.56250000   1     342  Si
    0.56250000    0.68750000    0.68750000   1     343  Si
    0.68750000    0.68750000    0.56250000   1     344  Si
    0.75000000    0.50000000    0.50000000   1     345  Si
    0.75000000    0.62500000    0.62500000   1     346  Si
    0.87500000    0.50000000    0.62500000   1     347  Si
    0.87500000    0.62500000    0.50000000   1     348  Si
    0.93750000    0.56250000    0.68750000   1     349  Si
    0.81250000    0.56250000    0.56250000   1     350  Si
    0.81250000    0.68750000    0.68750000   1     351  Si
    0.93750000    0.68750000    0.56250000   1     352  Si
    0.00000000    0.75000000    0.50000000   1     353  Si
    0.00000000    0.87500000    0.62500000   1     354  Si
    0.12500000    0.75000000    0.62500000   1     355  Si
    0.12500000    0.87500000    0.50000000   1     356  Si
    0.18750000    0.81250000    0.68750000   1     357  Si
    0.06250000    0.81250000    0.56250000   1     358  Si
    0.06250000    0.93750000    0.68750000   1     359  Si
    0.18750000    0.93750000    0.56250000   1     360  Si
    0.25000000    0.75000000    0.50000000   1     361  Si
    0.25000000    0.87500000    0.62500000   1     362  Si
    0.37500000    0.75000000    0.62500000   1     363  Si
    0.37500000    0.87500000    0.50000000   1     364  Si
    0.43750000    0.81250000    0.68750000   1     365  Si
    0.31250000    0.81250000    0.56250000   1     366  Si
    0.31250000    0.93750000    0.68750000   1     367  Si
    0.43750000    0.93750000    0.56250000   1     368  Si
    0.50000000    0.75000000    0.50000000   1     369  Si
    0.50000000    0.87500000    0.62500000   1     370  Si
    0.62500000    0.75000000    0.62500000   1     371  Si
    0.62500000    0.87500000    0.50000000   1     372  Si
    0.68750000    0.81250000    0.68750000   1     373  Si
    0.56250000    0.81250000    0.56250000   1     374  Si
    0.56250000    0.93750000    0.68750000   1     375  Si
    0.68750000    0.93750000    0.56250000   1     376  Si
    0.75000000    0.75000000    0.50000000   1     377  Si
    0.75000000    0.87500000    0.62500000   1     378  Si
    0.87500000    0.75000000    0.62500000   1     379  Si
    0.87500000    0.87500000    0.50000000   1     380  Si
    0.93750000    0.81250000    0.68750000   1     381  Si
    0.81250000    0.81250000    0.56250000   1     382  Si
    0.81250000    0.93750000    0.68750000   1     383  Si
    0.93750000    0.93750000    0.56250000   1     384  Si
    0.00000000    0.00000000    0.75000000   1     385  Si
    0.00000000    0.12500000    0.87500000   1     386  Si
    0.12500000    0.00000000    0.87500000   1     387  Si
    0.12500000    0.12500000    0.75000000   1     388  Si
    0.18750000    0.06250000    0.93750000   1     389  Si
    0.06250000    0.06250000    0.81250000   1     390  Si
    0.06250000    0.18750000    0.93750000   1     391  Si
    0.18750000    0.18750000    0.81250000   1     392  Si
    0.25000000    0.00000000    0.75000000   1     393  Si
    0.25000000    0.12500000    0.87500000   1     394  Si
    0.37500000    0.00000000    0.87500000   1     395  Si
    0.37500000    0.12500000    0.75000000   1     396  Si
    0.43750000    0.06250000    0.93750000   1     397  Si
    0.31250000    0.06250000    0.81250000   1     398  Si
    0.31250000    0.18750000    0.93750000   1     399  Si
    0.43750000    0.18750000    0.81250000   1     400  Si
    0.50000000    0.00000000    0.75000000   1     401  Si
    0.50000000    0.12500000    0.87500000   1     402  Si
    0.62500000    0.00000000    0.87500000   1     403  Si
    0.62500000    0.12500000    0.75000000   1     404  Si
    0.68750000    0.06250000    0.93750000   1     405  Si
    0.56250000    0.06250000    0.81250000   1     406  Si
    0.56250000    0.18750000    0.93750000   1     407  Si
    0.68750000    0.18750000    0.81250000   1     408  Si
    0.75000000    0.00000000    0.75000000   1     409  Si
    0.75000000    0.12500000    0.87500000   1     410  Si
    0.87500000    0.00000000    0.87500000   1     411  Si
    0.87500000    0.12500000    0.75000000   1     412  Si
    0.93750000    0.06250000    0.93750000   1     413  Si
    0.81250000    0.06250000    0.81250000   1     414  Si
    0.81250000    0.18750000    0.93750000   1     415  Si
    0.93750000    0.18750000    0.81250000   1     416  Si
    0.00000000    0.25000000    0.75000000   1     417  Si
    0.00000000    0.37500000    0.87500000   1     418  Si
    0.12500000    0.25000000    0.87500000   1     419  Si
    0.12500000    0.37500000    0.75000000   1     420  Si
    0.18750000    0.31250000    0.93750000   1     421  Si
    0.06250000    0.31250000    0.81250000   1     422  Si
    0.06250000    0.43750000    0.93750000   1     423  Si
    0.18750000    0.43750000    0.81250000   1     424  Si
    0.25000000    0.25000000    0.75000000   1     425  Si
    0.25000000    0.37500000    0.87500000   1     426  Si
    0.37500000    0.25000000    0.87500000   1     427  Si
    0.37500000    0.37500000    0.75000000   1     428  Si
    0.43750000    0.31250000    0.93750000   1     429  Si
    0.31250000    0.31250000    0.81250000   1     430  Si
    0.31250000    0.43750000    0.93750000   1     431  Si
    0.43750000    0.43750000    0.81250000   1     432  Si
    0.50000000    0.25000000    0.75000000   1     433  Si
    0.50000000    0.37500000    0.87500000   1     434  Si
    0.62500000    0.25000000    0.87500000   1     435  Si
    0.62500000    0.37500000    0.75000000   1     436  Si
    0.68750000    0.31250000    0.93750000   1     437  Si
    0.56250000    0.31250000    0.81250000   1     438  Si
    0.56250000    0.43750000    0.93750000   1     439  Si
    0.68750000    0.43750000    0.81250000   1     440  Si
    0.75000000    0.25000000    0.75000000   1     441  Si
    0.75000000    0.37500000    0.87500000   1     442  Si
    0.87500000    0.25000000    0.87500000   1     443  Si
    0.87500000    0.37500000    0.75000000   1     444  Si
    0.93750000    0.31250000    0.93750000   1     445  Si
    0.81250000    0.31250000    0.81250000   1     446  Si
    0.81250000    0.43750000    0.93750000   1     447  Si
    0.93750000    0.43750000    0.81250000   1     448  Si
    0.00000000    0.50000000    0.75000000   1     449  Si
    0.00000000    0.62500000    0.87500000   1     450  Si
    0.12500000    0.50000000    0.87500000   1     451  Si
    0.12500000    0.62500000    0.75000000   1     452  Si
    0.18750000    0.56250000    0.93750000   1     453  Si
    0.06250000    0.56250000    0.81250000   1     454  Si
    0.06250000    0.68750000    0.93750000   1     455  Si
    0.18750000    0.68750000    0.81250000   1     456  Si
    0.25000000    0.50000000    0.75000000   1     457  Si
    0.25000000    0.62500000    0.87500000   1     458  Si
    0.37500000    0.50000000    0.87500000   1     459  Si
    0.37500000    0.62500000    0.75000000   1     460  Si
    0.43750000    0.56250000    0.93750000   1     461  Si
    0.31250000    0.56250000    0.81250000   1     462  Si
    0.31250000    0.68750000    0.93750000   1     463  Si
    0.43750000    0.68750000    0.81250000   1     464  Si
    0.50000000    0.50000000    0.75000000   1     465  Si
    0.50000000    0.62500000    0.87500000   1     466  Si
    0.62500000    0.50000000    0.87500000   1     467  Si
    0.62500000    0.62500000    0.75000000   1     468  Si
    0.68750000    0.56250000    0.93750000   1     469  Si
    0.56250000    0.56250000    0.81250000   1     470  Si
    0.56250000    0.68750000    0.93750000   1     471  Si
    0.68750000    0.68750000    0.81250000   1     472  Si
    0.75000000    0.50000000    0.75000000   1     473  Si
    0.75000000    0.62500000    0.87500000   1     474  Si
    0.87500000    0.50000000    0.87500000   1     475  Si
    0.87500000    0.62500000    0.75000000   1     476  Si
    0.93750000    0.56250000    0.93750000   1     477  Si
    0.81250000    0.56250000    0.81250000   1     478  Si
    0.81250000    0.68750000    0.93750000   1     479  Si
    0.93750000    0.68750000    0.81250000   1     480  Si
    0.00000000    0.75000000    0.75000000   1     481  Si
    0.00000000    0.87500000    0.87500000   1     482  Si
    0.12500000    0.75000000    0.87500000   1     483  Si
    0.12500000    0.87500000    0.75000000   1     484  Si
    0.18750000    0.81250000    0.93750000   1     485  Si
    0.06250000    0.81250000    0.81250000   1     486  Si
    0.06250000    0.93750000    0.93750000   1     487  Si
    0.18750000    0.93750000    0.81250000   1     488  Si
    0.25000000    0.75000000    0.75000000   1     489  Si
    0.25000000    0.87500000    0.87500000   1     490  Si
    0.37500000    0.75000000    0.87500000   1     491  Si
    0.37500000    0.87500000    0.75000000   1     492  Si
    0.43750000    0.81250000    0.93750000   1     493  Si
    0.31250000    0.81250000    0.81250000   1     494  Si
    0.31250000    0.93750000    0.93750000   1     495  Si
    0.43750000    0.93750000    0.81250000   1     496  Si
    0.50000000    0.75000000    0.75000000   1     497  Si
    0.50000000    0.87500000    0.87500000   1     498  Si
    0.62500000    0.75000000    0.87500000   1     499  Si
    0.62500000    0.87500000    0.75000000   1     500  Si
    0.68750000    0.81250000    0.93750000   1     501  Si
    0.56250000    0.81250000    0.81250000   1     502  Si
    0.56250000    0.93750000    0.93750000   1     503  Si
    0.68750000    0.93750000    0.81250000   1     504  Si
    0.75000000    0.75000000    0.75000000   1     505  Si
    0.75000000    0.87500000    0.87500000   1     506  Si
    0.87500000    0.75000000    0.87500000   1     507  Si
    0.87500000    0.87500000    0.75000000   1     508  Si
    0.93750000    0.81250000    0.93750000   1     509  Si
    0.81250000    0.81250000    0.81250000   1     510  Si
    0.81250000    0.93750000    0.93750000   1     511  Si
    0.93750000    0.93750000    0.81250000   1     512  Si

outcell: Unit cell vectors (Ang):
       21.720000    0.000000    0.000000
        0.000000   21.720000    0.000000
        0.000000    0.000000   21.720000

outcell: Cell vector modules (Ang)   :   21.720000   21.720000   21.720000
outcell: Cell angles (23,13,12) (deg):     90.0000     90.0000     90.0000
outcell: Cell volume (Ang**3)        :  10246.5924
 Folding of H and S is implicitly performed
New_DM. Step:     1
Initializing Density Matrix...

InitMesh: MESH =   162 x   162 x   162 =     4251528
InitMesh: Mesh cutoff (required, used) =   150.000   153.749 Ry

 Input, default information for hybrid DFT calculations

 Hybrid DFT :: HSE06
 Omega =    0.110
Schwarz tolerance = .1D-05
pairlist tolerance = .1D-05
Stored tolerance = .1D-05
Farfield tolerance =.1D-05
On_the_fly =   F
use_DM_trunc =   T
Farfield =   T
Dynamic parallel =   T
Dynamic tasksize =   100000
HFX.UseFittedNAOs                    T
HFX.FitDataPoints               500
HFX.MinimumNumberGaussians                  3
HFX.MaximumNumberGaussians                  5
HFX.SeparationExponents                 0.140E+01
HFX.ToleranceFit                 0.100E-02
HFX.GaussianEPS                 0.100E-04
 max_eri_prescreen  0.856125571840617     
 max0 =   0.828185883976229     
list_ij:        349696
list_kl:        349696
max_eri 0.856125572
  1.000000000000000E-006  -6.00000000000000     
      349696      349696          122287292416
 HFX time :    41.9305660000000       s 
  Allreduce time ::    676.454221000000       s 
  All HFX time ::    683.225985000000       s 
 HFX energy:       -2963.327407  eV

* Maximum dynamic memory allocated =   724 MB

stepf: Fermi-Dirac step function

siesta: Program's energy decomposition (eV):
siesta: Ebs     =    -20820.226998
siesta: Eions   =     95625.355769
siesta: Ena     =     28365.784795
siesta: Ekin    =     20346.039921
siesta: Enl     =      8984.318869
siesta: DEna    =        -0.000012
siesta: DUscf   =         0.000000
siesta: DUext   =         0.000000
siesta: Exc     =    -16757.274022
siesta: eta*DQ  =         0.000000
siesta: Emadel  =         0.000000
siesta: Emeta   =         0.000000
siesta: Emolmec =         0.000000
siesta: Ekinion =         0.000000
siesta: Eharris =    -54525.293413
siesta: Etot    =    -54686.486218
siesta: FreeEng =    -54686.486218

siesta: iscf   Eharris(eV)      E_KS(eV)   FreeEng(eV)   dDmax  Ef(eV)
siesta:    1   -54525.2934   -54686.4862   -54686.4862  1.4800 -3.6412
timer: Routine,Calls,Time,% = IterSCF        1  169237.796  99.89
elaps: Routine,Calls,Wall,% = IterSCF        1     707.509  99.89
      349696      349696          122287292416
 HFX time :    417.471449000000       s 
  Allreduce time ::    417.839676000000       s 
  All HFX time ::    424.782571000000       s 
 HFX energy:       -2873.514160  eV
siesta:    2   -54722.4946   -54716.1522   -54716.1522  0.0376 -3.7137
      349696      349696          122287292416
 HFX time :    417.395837000000       s 
  Allreduce time ::    417.775998000000       s 
  All HFX time ::    424.580123000000       s 
 HFX energy:       -2877.957859  eV
siesta:    3   -54722.8027   -54719.0529   -54719.0529  0.0207 -3.7099
      349696      349696          122287292416
 HFX time :    412.742139000000       s 
  Allreduce time ::    413.124110000000       s 
  All HFX time ::    420.272031000000       s 
 HFX energy:       -2887.656585  eV
siesta:    4   -54723.1160   -54723.1795   -54723.1795  0.0006 -3.6733
      349696      349696          122287292416
 HFX time :    414.092238000000       s 
  Allreduce time ::    414.469993000000       s 
  All HFX time ::    421.289537000000       s 
 HFX energy:       -2887.659301  eV
siesta:    5   -54723.1128   -54723.2677   -54723.2677  0.0006 -3.6973
      349696      349696          122287292416
 HFX time :    414.515352000000       s 
  Allreduce time ::    414.897382000000       s 
  All HFX time ::    421.745448000000       s 
 HFX energy:       -2887.720937  eV
siesta:    6   -54723.1111   -54723.2885   -54723.2885  0.0006 -3.7042
      349696      349696          122287292416
 HFX time :    414.228270000000       s 
  Allreduce time ::    414.612442000000       s 
  All HFX time ::    421.465179000000       s 
 HFX energy:       -2887.739418  eV
siesta:    7   -54723.1114   -54723.2317   -54723.2317  0.0005 -3.7153
      349696      349696          122287292416
 HFX time :    414.603896000000       s 
  Allreduce time ::    414.978213000000       s 
  All HFX time ::    421.834562000000       s 
 HFX energy:       -2887.758567  eV
siesta:    8   -54723.1115   -54723.1653   -54723.1653  0.0004 -3.7206
      349696      349696          122287292416
 HFX time :    414.058830000000       s 
  Allreduce time ::    414.438093000000       s 
  All HFX time ::    421.283978000000       s 
 HFX energy:       -2887.763899  eV
siesta:    9   -54723.1111   -54723.1429   -54723.1429  0.0002 -3.7200
      349696      349696          122287292416
 HFX time :    414.278785000000       s 
  Allreduce time ::    414.661786000000       s 
  All HFX time ::    421.487587000000       s 
 HFX energy:       -2887.765260  eV
siesta:   10   -54723.1108   -54723.1329   -54723.1329  0.0002 -3.7214
      349696      349696          122287292416
 HFX time :    412.808183000000       s 
  Allreduce time ::    413.189239000000       s 
  All HFX time ::    420.078876000000       s 
 HFX energy:       -2887.768252  eV
siesta:   11   -54723.1107   -54723.1189   -54723.1189  0.0001 -3.7223
      349696      349696          122287292416
 HFX time :    413.684281000001       s 
  Allreduce time ::    414.062692000000       s 
  All HFX time ::    420.904149000000       s 
 HFX energy:       -2887.768449  eV
 To calculate HFX gradient
list_ij:        349696
list_kl:        349696
      349696      349696          122287292416
 HFX Force time :    306.204374000000       s 
  All Force time ::    313.243026000000       s

siesta: E_KS(eV) =           -54723.1168

siesta: E_KS - E_eggbox =    -54723.1168

siesta: Atomic forces (eV/Ang):
     1   -0.000083   -0.000056   -0.000084
     2   -0.000071   -0.000110   -0.000116
     3    0.000003   -0.000114   -0.000128
     4   -0.000061   -0.000021    0.000014
     5   -0.000165   -0.000287   -0.000261
     6   -0.000161   -0.000139   -0.000146
     7   -0.000183   -0.000239   -0.000242
     8   -0.000130   -0.000150   -0.000220
     9    0.000016   -0.000060    0.000007
    10   -0.000085   -0.000309   -0.000312
[...]
siesta: FreeEng =    -54723.116793

siesta: Final energy (eV):
siesta:  Band Struct. =  -20649.176920
siesta:       Kinetic =   20982.070950
siesta:       Hartree =    3853.146682
siesta:    Ext. field =       0.000000
siesta:   Exch.-corr. =  -16807.325645
siesta:  Ion-electron =  -25731.998404
siesta:       Ion-ion =  -37019.010376
siesta:       Ekinion =       0.000000
siesta:         Total =  -54723.116793

siesta: Stress tensor (static) (eV/Ang**3):
siesta:    -0.250634   -0.000000    0.000000
siesta:    -0.000000   -0.250634   -0.000000
siesta:    -0.000000   -0.000000   -0.250637

siesta: Cell volume =      10246.592448 Ang**3

siesta: Pressure (static):
siesta:                Solid            Molecule  Units
siesta:           0.00272974          0.00272961  Ry/Bohr**3
siesta:           0.25063533          0.25062330  eV/Ang**3
siesta:         401.56641378        401.54713839  kBar
(Free)E+ p_basis*V_orbitals  =      -53739.466211
(Free)Eharris+ p_basis*V_orbitals  =      -53739.458094

* Maximum dynamic memory allocated : Node    0 =  2046 MB
* Maximum dynamic memory allocated : Node    1 =  2040 MB
* Maximum dynamic memory allocated : Node    2 =  2040 MB
* Maximum dynamic memory allocated : Node    3 =  2041 MB
* Maximum dynamic memory allocated : Node    4 =  2040 MB
* Maximum dynamic memory allocated : Node    5 =  2040 MB
* Maximum dynamic memory allocated : Node    6 =  2041 MB
* Maximum dynamic memory allocated : Node    7 =  2040 MB
* Maximum dynamic memory allocated : Node    8 =  2041 MB
* Maximum dynamic memory allocated : Node    9 =  2040 MB
* Maximum dynamic memory allocated : Node   10 =  2040 MB
* Maximum dynamic memory allocated : Node   11 =  2040 MB
* Maximum dynamic memory allocated : Node   12 =  2040 MB
* Maximum dynamic memory allocated : Node   13 =  2041 MB
* Maximum dynamic memory allocated : Node   14 =  2040 MB
* Maximum dynamic memory allocated : Node   15 =  2040 MB
* Maximum dynamic memory allocated : Node   16 =  2041 MB
* Maximum dynamic memory allocated : Node   17 =  2148 MB
* Maximum dynamic memory allocated : Node   18 =  2040 MB
* Maximum dynamic memory allocated : Node   19 =  2040 MB
* Maximum dynamic memory allocated : Node   20 =  2046 MB
* Maximum dynamic memory allocated : Node   21 =  2040 MB
* Maximum dynamic memory allocated : Node   22 =  2040 MB
* Maximum dynamic memory allocated : Node   23 =  2040 MB
* Maximum dynamic memory allocated : Node   24 =  2148 MB
* Maximum dynamic memory allocated : Node   25 =  2040 MB
* Maximum dynamic memory allocated : Node   26 =  2040 MB
* Maximum dynamic memory allocated : Node   27 =  2040 MB
* Maximum dynamic memory allocated : Node   28 =  2041 MB
* Maximum dynamic memory allocated : Node   29 =  2040 MB
* Maximum dynamic memory allocated : Node   30 =  2148 MB
* Maximum dynamic memory allocated : Node   31 =  2040 MB
* Maximum dynamic memory allocated : Node   32 =  2041 MB
* Maximum dynamic memory allocated : Node   33 =  2041 MB
* Maximum dynamic memory allocated : Node   34 =  2040 MB
* Maximum dynamic memory allocated : Node   35 =  2040 MB
* Maximum dynamic memory allocated : Node   36 =  2040 MB
* Maximum dynamic memory allocated : Node   37 =  2141 MB
* Maximum dynamic memory allocated : Node   38 =  2137 MB
* Maximum dynamic memory allocated : Node   39 =  2148 MB
* Maximum dynamic memory allocated : Node   40 =  2143 MB
* Maximum dynamic memory allocated : Node   41 =  2137 MB
* Maximum dynamic memory allocated : Node   42 =  2148 MB
* Maximum dynamic memory allocated : Node   43 =  2137 MB
* Maximum dynamic memory allocated : Node   44 =  2148 MB
* Maximum dynamic memory allocated : Node   45 =  2137 MB
* Maximum dynamic memory allocated : Node   46 =  2137 MB
* Maximum dynamic memory allocated : Node   47 =  2137 MB
* Maximum dynamic memory allocated : Node   48 =  2137 MB
* Maximum dynamic memory allocated : Node   49 =  2148 MB
* Maximum dynamic memory allocated : Node   50 =  2148 MB
* Maximum dynamic memory allocated : Node   51 =  2137 MB
* Maximum dynamic memory allocated : Node   52 =  2137 MB
* Maximum dynamic memory allocated : Node   53 =  2137 MB
* Maximum dynamic memory allocated : Node   54 =  2137 MB
* Maximum dynamic memory allocated : Node   55 =  2137 MB
* Maximum dynamic memory allocated : Node   56 =  2137 MB
* Maximum dynamic memory allocated : Node   57 =  2137 MB
* Maximum dynamic memory allocated : Node   58 =  2148 MB
* Maximum dynamic memory allocated : Node   59 =  2148 MB
* Maximum dynamic memory allocated : Node   60 =  2143 MB
* Maximum dynamic memory allocated : Node   61 =  2137 MB
* Maximum dynamic memory allocated : Node   62 =  2137 MB
* Maximum dynamic memory allocated : Node   63 =  2137 MB
* Maximum dynamic memory allocated : Node   64 =  2137 MB
* Maximum dynamic memory allocated : Node   65 =  2148 MB
* Maximum dynamic memory allocated : Node   66 =  2137 MB
* Maximum dynamic memory allocated : Node   67 =  2138 MB
* Maximum dynamic memory allocated : Node   68 =  2137 MB
* Maximum dynamic memory allocated : Node   69 =  2137 MB
* Maximum dynamic memory allocated : Node   70 =  2137 MB
* Maximum dynamic memory allocated : Node   71 =  2137 MB
* Maximum dynamic memory allocated : Node   72 =  2137 MB
* Maximum dynamic memory allocated : Node   73 =  2137 MB
* Maximum dynamic memory allocated : Node   74 =  2137 MB
* Maximum dynamic memory allocated : Node   75 =  2137 MB
* Maximum dynamic memory allocated : Node   76 =  2137 MB
* Maximum dynamic memory allocated : Node   77 =  2137 MB
* Maximum dynamic memory allocated : Node   78 =  2148 MB
* Maximum dynamic memory allocated : Node   79 =  2148 MB
* Maximum dynamic memory allocated : Node   80 =  2143 MB
* Maximum dynamic memory allocated : Node   81 =  2137 MB
* Maximum dynamic memory allocated : Node   82 =  2137 MB
* Maximum dynamic memory allocated : Node   83 =  2137 MB
* Maximum dynamic memory allocated : Node   84 =  2137 MB
* Maximum dynamic memory allocated : Node   85 =  2148 MB
* Maximum dynamic memory allocated : Node   86 =  2137 MB
* Maximum dynamic memory allocated : Node   87 =  2137 MB
* Maximum dynamic memory allocated : Node   88 =  2137 MB
* Maximum dynamic memory allocated : Node   89 =  2148 MB
* Maximum dynamic memory allocated : Node   90 =  2137 MB
* Maximum dynamic memory allocated : Node   91 =  2137 MB
* Maximum dynamic memory allocated : Node   92 =  2138 MB
* Maximum dynamic memory allocated : Node   93 =  2137 MB
* Maximum dynamic memory allocated : Node   94 =  2148 MB
* Maximum dynamic memory allocated : Node   95 =  2148 MB
* Maximum dynamic memory allocated : Node   96 =  2137 MB
* Maximum dynamic memory allocated : Node   97 =  2137 MB
* Maximum dynamic memory allocated : Node   98 =  2137 MB
* Maximum dynamic memory allocated : Node   99 =  2148 MB
* Maximum dynamic memory allocated : Node  100 =  2143 MB
* Maximum dynamic memory allocated : Node  101 =  2148 MB
* Maximum dynamic memory allocated : Node  102 =  2148 MB
* Maximum dynamic memory allocated : Node  103 =  2137 MB
* Maximum dynamic memory allocated : Node  104 =  2137 MB
* Maximum dynamic memory allocated : Node  105 =  2137 MB
* Maximum dynamic memory allocated : Node  106 =  2148 MB
* Maximum dynamic memory allocated : Node  107 =  2137 MB
* Maximum dynamic memory allocated : Node  108 =  2148 MB
* Maximum dynamic memory allocated : Node  109 =  2137 MB
* Maximum dynamic memory allocated : Node  110 =  2137 MB
* Maximum dynamic memory allocated : Node  111 =  2137 MB
* Maximum dynamic memory allocated : Node  112 =  2137 MB
* Maximum dynamic memory allocated : Node  113 =  2137 MB
* Maximum dynamic memory allocated : Node  114 =  2137 MB
* Maximum dynamic memory allocated : Node  115 =  2137 MB
* Maximum dynamic memory allocated : Node  116 =  2137 MB
* Maximum dynamic memory allocated : Node  117 =  2137 MB
* Maximum dynamic memory allocated : Node  118 =  2148 MB
* Maximum dynamic memory allocated : Node  119 =  2148 MB
* Maximum dynamic memory allocated : Node  120 =  2142 MB
* Maximum dynamic memory allocated : Node  121 =  2148 MB
* Maximum dynamic memory allocated : Node  122 =  2137 MB
* Maximum dynamic memory allocated : Node  123 =  2137 MB
* Maximum dynamic memory allocated : Node  124 =  2137 MB
* Maximum dynamic memory allocated : Node  125 =  2148 MB
* Maximum dynamic memory allocated : Node  126 =  2137 MB
* Maximum dynamic memory allocated : Node  127 =  2138 MB
* Maximum dynamic memory allocated : Node  128 =  2137 MB
* Maximum dynamic memory allocated : Node  129 =  2137 MB
* Maximum dynamic memory allocated : Node  130 =  2137 MB
* Maximum dynamic memory allocated : Node  131 =  2137 MB
* Maximum dynamic memory allocated : Node  132 =  2138 MB
* Maximum dynamic memory allocated : Node  133 =  2137 MB
* Maximum dynamic memory allocated : Node  134 =  2148 MB
* Maximum dynamic memory allocated : Node  135 =  2148 MB
* Maximum dynamic memory allocated : Node  136 =  2137 MB
* Maximum dynamic memory allocated : Node  137 =  2138 MB
* Maximum dynamic memory allocated : Node  138 =  2148 MB
* Maximum dynamic memory allocated : Node  139 =  2148 MB
* Maximum dynamic memory allocated : Node  140 =  2143 MB
* Maximum dynamic memory allocated : Node  141 =  2148 MB
* Maximum dynamic memory allocated : Node  142 =  2138 MB
* Maximum dynamic memory allocated : Node  143 =  2148 MB
* Maximum dynamic memory allocated : Node  144 =  2137 MB
* Maximum dynamic memory allocated : Node  145 =  2137 MB
* Maximum dynamic memory allocated : Node  146 =  2137 MB
* Maximum dynamic memory allocated : Node  147 =  2137 MB
* Maximum dynamic memory allocated : Node  148 =  2137 MB
* Maximum dynamic memory allocated : Node  149 =  2137 MB
* Maximum dynamic memory allocated : Node  150 =  2137 MB
* Maximum dynamic memory allocated : Node  151 =  2137 MB
* Maximum dynamic memory allocated : Node  152 =  2137 MB
* Maximum dynamic memory allocated : Node  153 =  2137 MB
* Maximum dynamic memory allocated : Node  154 =  2137 MB
* Maximum dynamic memory allocated : Node  155 =  2137 MB
* Maximum dynamic memory allocated : Node  156 =  2137 MB
* Maximum dynamic memory allocated : Node  157 =  2137 MB
* Maximum dynamic memory allocated : Node  158 =  2148 MB
* Maximum dynamic memory allocated : Node  159 =  2137 MB
* Maximum dynamic memory allocated : Node  160 =  2143 MB
* Maximum dynamic memory allocated : Node  161 =  2137 MB
* Maximum dynamic memory allocated : Node  162 =  2137 MB
* Maximum dynamic memory allocated : Node  163 =  2137 MB
* Maximum dynamic memory allocated : Node  164 =  2137 MB
* Maximum dynamic memory allocated : Node  165 =  2148 MB
* Maximum dynamic memory allocated : Node  166 =  2137 MB
* Maximum dynamic memory allocated : Node  167 =  2137 MB
* Maximum dynamic memory allocated : Node  168 =  2137 MB
* Maximum dynamic memory allocated : Node  169 =  2137 MB
* Maximum dynamic memory allocated : Node  170 =  2137 MB
* Maximum dynamic memory allocated : Node  171 =  2137 MB
* Maximum dynamic memory allocated : Node  172 =  2137 MB
* Maximum dynamic memory allocated : Node  173 =  2137 MB
* Maximum dynamic memory allocated : Node  174 =  2137 MB
* Maximum dynamic memory allocated : Node  175 =  2137 MB
* Maximum dynamic memory allocated : Node  176 =  2137 MB
* Maximum dynamic memory allocated : Node  177 =  2137 MB
* Maximum dynamic memory allocated : Node  178 =  2148 MB
* Maximum dynamic memory allocated : Node  179 =  2148 MB
* Maximum dynamic memory allocated : Node  180 =  2138 MB
* Maximum dynamic memory allocated : Node  181 =  2145 MB
* Maximum dynamic memory allocated : Node  182 =  2145 MB
* Maximum dynamic memory allocated : Node  183 =  2145 MB
* Maximum dynamic memory allocated : Node  184 =  2145 MB
* Maximum dynamic memory allocated : Node  185 =  2145 MB
* Maximum dynamic memory allocated : Node  186 =  2145 MB
* Maximum dynamic memory allocated : Node  187 =  2145 MB
* Maximum dynamic memory allocated : Node  188 =  2145 MB
* Maximum dynamic memory allocated : Node  189 =  2145 MB
* Maximum dynamic memory allocated : Node  190 =  2145 MB
* Maximum dynamic memory allocated : Node  191 =  2145 MB
* Maximum dynamic memory allocated : Node  192 =  2145 MB
* Maximum dynamic memory allocated : Node  193 =  2144 MB
* Maximum dynamic memory allocated : Node  194 =  2145 MB
* Maximum dynamic memory allocated : Node  195 =  2145 MB
* Maximum dynamic memory allocated : Node  196 =  2145 MB
* Maximum dynamic memory allocated : Node  197 =  2145 MB
* Maximum dynamic memory allocated : Node  198 =  2145 MB
* Maximum dynamic memory allocated : Node  199 =  2144 MB
* Maximum dynamic memory allocated : Node  200 =  2138 MB
* Maximum dynamic memory allocated : Node  201 =  2145 MB
* Maximum dynamic memory allocated : Node  202 =  2145 MB
* Maximum dynamic memory allocated : Node  203 =  2145 MB
* Maximum dynamic memory allocated : Node  204 =  2145 MB
* Maximum dynamic memory allocated : Node  205 =  2145 MB
* Maximum dynamic memory allocated : Node  206 =  2145 MB
* Maximum dynamic memory allocated : Node  207 =  2145 MB
* Maximum dynamic memory allocated : Node  208 =  2145 MB
* Maximum dynamic memory allocated : Node  209 =  2145 MB
* Maximum dynamic memory allocated : Node  210 =  2145 MB
* Maximum dynamic memory allocated : Node  211 =  2145 MB
* Maximum dynamic memory allocated : Node  212 =  2145 MB
* Maximum dynamic memory allocated : Node  213 =  2145 MB
* Maximum dynamic memory allocated : Node  214 =  2145 MB
* Maximum dynamic memory allocated : Node  215 =  2145 MB
* Maximum dynamic memory allocated : Node  216 =  2145 MB
* Maximum dynamic memory allocated : Node  217 =  2145 MB
* Maximum dynamic memory allocated : Node  218 =  2145 MB
* Maximum dynamic memory allocated : Node  219 =  2144 MB
* Maximum dynamic memory allocated : Node  220 =  2138 MB
* Maximum dynamic memory allocated : Node  221 =  2145 MB
* Maximum dynamic memory allocated : Node  222 =  2145 MB
* Maximum dynamic memory allocated : Node  223 =  2145 MB
* Maximum dynamic memory allocated : Node  224 =  2145 MB
* Maximum dynamic memory allocated : Node  225 =  2144 MB
* Maximum dynamic memory allocated : Node  226 =  2145 MB
* Maximum dynamic memory allocated : Node  227 =  2145 MB
* Maximum dynamic memory allocated : Node  228 =  2145 MB
* Maximum dynamic memory allocated : Node  229 =  2145 MB
* Maximum dynamic memory allocated : Node  230 =  2145 MB
* Maximum dynamic memory allocated : Node  231 =  2145 MB
* Maximum dynamic memory allocated : Node  232 =  2145 MB
* Maximum dynamic memory allocated : Node  233 =  2145 MB
* Maximum dynamic memory allocated : Node  234 =  2144 MB
* Maximum dynamic memory allocated : Node  235 =  2144 MB
* Maximum dynamic memory allocated : Node  236 =  2145 MB
* Maximum dynamic memory allocated : Node  237 =  2145 MB
* Maximum dynamic memory allocated : Node  238 =  2144 MB
* Maximum dynamic memory allocated : Node  239 =  2144 MB

* Maximum memory occured during update_hfx                    

timer: CPU execution times:
timer:  Routine       Calls   Time/call    Tot.time        %
timer:  siesta            1 1401471.383 1401471.383   100.00
timer:  Setup             1     105.130     105.130     0.01
timer:  bands             1       0.091       0.091     0.00
timer:  writewave         1       0.183       0.183     0.00
timer:  KSV_init          1       0.037       0.037     0.00
timer:  IterMD            1 1401347.781 1401347.781    99.99
timer:  hsparse           1      29.708      29.708     0.00
timer:  overlap           1      29.674      29.674     0.00
timer:  IterSCF          11  110965.967 1220625.642    87.10
timer:  kinefsm           2      17.370      34.741     0.00
timer:  nlefsm            2     345.199     690.399     0.05
timer:  DHSCF            12  115919.505 1391034.060    99.26
timer:  DHSCF1            1      23.811      23.811     0.00
timer:  DHSCF2            1     343.490     343.490     0.02
timer:  REORD            74       0.006       0.463     0.00
timer:  POISON           13       3.505      45.570     0.00
timer:  DHSCF3           12    2735.648   32827.773     2.34
timer:  rhoofd           12     388.717    4664.607     0.33
timer:  cellXC           12      12.687     152.242     0.01
timer:  vmat             12    2234.128   26809.532     1.91
timer:  DHFX             12  106815.386 1281784.637    91.46
timer:  HFX              12   92390.205 1108682.458    79.11
timer:  MolMec            2       0.042       0.083     0.00
timer:  diagon           11     719.367    7913.032     0.56
timer:  r-eigvec         11     648.892    7137.817     0.51
timer:  r-buildHS        11       0.449       4.942     0.00
timer:  rdiag            11     648.441    7132.849     0.51
timer:  rdiag1           11      48.743     536.169     0.04
timer:  rdiag2           11     194.386    2138.249     0.15
timer:  rdiag3           11     372.257    4094.826     0.29
timer:  rdiag4           11      24.939     274.328     0.02
timer:  r-buildD         11      70.164     771.800     0.06
timer:  DHSCF4            1     543.218     543.218     0.04
timer:  dfscf             1     532.867     532.867     0.04
timer:  DFHFX             1   75510.413   75510.413     5.39
timer:  HFX_gradie        1       0.000       0.000     0.00
timer:  HFX_gradie        0    Infinity 1401482.786   100.00
timer:  overfsm           1       6.172       6.172     0.00
timer:  optical           1      14.088      14.088     0.00
  

elaps: ELAPSED times:
elaps:  Routine       Calls   Time/call    Tot.time        %
elaps:  siesta            1    5857.761    5857.761   100.00
elaps:  Setup             1       0.473       0.473     0.01
elaps:  bands             1       0.000       0.000     0.00
elaps:  writewave         1       0.001       0.001     0.00
elaps:  KSV_init          1       0.000       0.000     0.00
elaps:  IterMD            1    5857.207    5857.207    99.99
elaps:  hsparse           1       0.136       0.136     0.00
elaps:  overlap           1       0.137       0.137     0.00
elaps:  IterSCF          11     463.802    5101.822    87.10
elaps:  kinefsm           2       0.087       0.173     0.00
elaps:  nlefsm            2       1.808       3.617     0.06
elaps:  DHSCF            12     484.515    5814.177    99.26
elaps:  DHSCF1            1       0.100       0.100     0.00
elaps:  DHSCF2            1       1.481       1.481     0.03
elaps:  REORD            74       0.000       0.002     0.00
elaps:  POISON           13       0.018       0.236     0.00
elaps:  DHSCF3           12      11.435     137.222     2.34
elaps:  rhoofd           12       1.985      23.815     0.41
elaps:  cellXC           12       0.053       0.638     0.01
elaps:  vmat             12       9.338     112.056     1.91
elaps:  DHFX             12     446.432    5357.182    91.45
elaps:  HFX              12     385.940    4631.278    79.06
elaps:  MolMec            2       0.000       0.000     0.00
elaps:  diagon           11       3.024      33.263     0.57
elaps:  r-eigvec         11       2.729      30.022     0.51
elaps:  r-buildHS        11       0.004       0.042     0.00
elaps:  rdiag            11       2.725      29.979     0.51
elaps:  rdiag1           11       0.217       2.390     0.04
elaps:  rdiag2           11       0.813       8.945     0.15
elaps:  rdiag3           11       1.561      17.172     0.29
elaps:  rdiag4           11       0.104       1.147     0.02
elaps:  r-buildD         11       0.293       3.223     0.06
elaps:  DHSCF4            1       2.794       2.794     0.05
elaps:  dfscf             1       2.747       2.747     0.05
elaps:  DFHFX             1     315.395     315.395     5.38
elaps:  HFX_gradie        1       0.000       0.000     0.00
elaps:  HFX_gradie        0    Infinity    5857.608   100.00
elaps:  overfsm           1       0.039       0.039     0.00
elaps:  optical           1       0.000       0.000     0.00
  
>> End of run:  24-MAY-2023   7:52:56
