Siesta Version  : 4.1.5
Architecture    : x86_64-intel
Compiler version: ifort (IFORT) 19.1.3.304 20200925
Compiler flags  : mpiifort -O2 -g -fPIC -fp-model source
PP flags        : -DMPI -DFC_HAVE_ABORT -DHAVE_LIBINT
Libraries       :  -L/public/software/compiler/intel/2020.update4/compilers_and_libraries_2020..4.304/linux/mkl/lib/intel64 -lmkl_intel_lp64 -lmkl_core -lmkl_sequential -lmkl_scalapack_lp64 -lmkl_blacs_intelmpi_lp64 /public/home/xmqin/MathLibs/libint/1.1.5/intel/lib/libderiv.a /public/home/xmqin/MathLibs/libint/1.1.5/intel/lib/libint.a -lpthread -lstdc++
PARALLEL version

* Running on 128 nodes in parallel
>> Start of run:  18-JUN-2025   9:39:43

                           ***********************       
                           *  WELCOME TO SIESTA  *       
                           ***********************       

reinit: Reading from standard input
reinit: Dumped input in INPUT_TMP.31095
************************** Dump of input data file ****************************
SystemName      Bulk Silisin
SystemLabel     Sibulk
NumberOfSpecies	        1
%block ChemicalSpeciesLabel
  1  14  Si
%endblock ChemicalSpeciesLabel
NumberOfAtoms           8
LatticeConstant      5.430 Ang
%block LatticeVectors
  1.00  0.00  0.00
  0.00  1.00  0.00
  0.00  0.00  1.00
%endblock LatticeVectors
AtomicCoordinatesFormat   Fractional
%block AtomicCoordinatesAndAtomicSpecies
  0.00000000000000  0.00000000000000  0.00000000000000  1
  0.00000000000000  0.50000000000000  0.50000000000000  1
  0.50000000000000  0.00000000000000  0.50000000000000  1
  0.50000000000000  0.50000000000000  0.00000000000000  1
  0.75000000000000  0.25000000000000  0.75000000000000  1
  0.25000000000000  0.25000000000000  0.25000000000000  1
  0.25000000000000  0.75000000000000  0.75000000000000  1
  0.75000000000000  0.75000000000000  0.25000000000000  1
%endblock AtomicCoordinatesAndAtomicSpecies
%block Supercell
   2   0   0
   0   2   0
   0   0   4
%endblock Supercell
kgrid.Cutoff 0. Bohr
%block PAO.Basis
Si     3    0.5564780
 n=3    0    2   E    129.4991135  5.4983922
   5.6841605               2.0421107
   1.00000000000000        1.00000000000000
 n=3    1    2   E    81.8582336   5.9078004
   6.439786                3.5339345
   1.00000000000000        1.00000000000000
 n=3    2    1   E    14.1744519   2.3574667
   3.9159002
   1.00000000000000
%endblock PAO.Basis
%block NAO2GTO
Si   5
3  0  1  5
    0.16303247E+00     0.63383670E+00
    0.72395647E+00     0.15046193E+01
    0.10135390E+01    -0.24932928E+01
    0.23816944E+01     0.10284758E+01
    0.33343721E+01    -0.39166455E+00
3  0  2  5
    0.10204082E+01     0.26922872E+01
    0.14285715E+01    -0.57983459E+01
    0.20000000E+01    -0.10201836E+02
    0.28000000E+01     0.16476430E+02
    0.39199999E+01    -0.57551709E+01
3  1  1  4
    0.15000000E+00     0.21382045E+00
    0.50330623E+00     0.44835493E+00
    0.95300463E+00    -0.31444340E+00
    0.16044378E+01     0.82939668E-01
3  1  2  4
    0.56960348E+00     0.39336859E+01
    0.79744486E+00    -0.57162678E+01
    0.11164228E+01     0.32400072E+01
    0.15629919E+01    -0.73843893E+00
3  2  1  4
    0.38934207E+00     0.46504665E+00
    0.13516736E+01     0.27829141E+00
    0.18923430E+01     0.85799466E+00
    0.26492802E+01    -0.44406486E+00
%endblock NAO2GTO
xc.functional      GGA    # Default vaxc.authors         HSE    # Default value
xc.authors        HSE06    # Default value
ElectronicTemperature  25 meV
#DM.UseSaveDM            T
MeshCutoff              250. Ry     # Equivalent planewave cutoff for the grid
MaxSCFIterations        50         # Maximum number of SCF iterations per step
DM.MixingWeight         0.2         # New DM amount for next SCF cycle
DM.Tolerance            1.d-4       # Tolerance in maximum difference
                                    # between input and output DM
DM.NumberPulay          6          # Number of SCF steps between pulay mixing
# Eigenvalue problem: order-N or diagonalization
SolutionMethod          diagon      # OrderN or Diagon
MD.TypeOfRun            cg          # Type of dynamics:
MD.NumCGsteps  0
#MD.VariableCell   .true.
MD.MaxForceTol  0.01 eV/Ang
#WriteMDXmol   .true.
WriteForces  .true.
WriteCoorStep
HFX.UseFittedNAOs  .true.
HFX.Dynamic_parallel .false.
HFX.FragSize 60000
************************** End of input data file *****************************

reinit: -----------------------------------------------------------------------
reinit: System Name: Bulk Silisin
reinit: -----------------------------------------------------------------------
reinit: System Label: Sibulk
reinit: -----------------------------------------------------------------------

initatom: Reading input for the pseudopotentials and atomic orbitals ----------
Species number:   1 Atomic number:   14 Label: Si
 
Ground state valence configuration:   3s02  3p02
Reading pseudopotential information in formatted form from Si.psf

Valence configuration for pseudopotential generation:
3s( 2.00) rc: 1.89
3p( 2.00) rc: 1.89
3d( 0.00) rc: 1.89
4f( 0.00) rc: 1.89
For Si, standard SIESTA heuristics set lmxkb to 3
 (one more than the basis l, including polarization orbitals).
Use PS.lmax or PS.KBprojectors blocks to override.

<basis_specs>
===============================================================================
Si                   Z=  14    Mass=  28.090        Charge= 0.55648    
Lmxo=2 Lmxkb= 3    BasisType=split      Semic=F
L=0  Nsemic=0  Cnfigmx=3
          i=1  nzeta=2  polorb=0  (3s)
            splnorm:   0.15000    
               vcte:    129.50    
               rinn:    5.4984    
               qcoe:    0.0000    
               qyuk:    0.0000    
               qwid:   0.10000E-01
                rcs:    5.6842      2.0421    
            lambdas:    1.0000      1.0000    
L=1  Nsemic=0  Cnfigmx=3
          i=1  nzeta=2  polorb=0  (3p)
            splnorm:   0.15000    
               vcte:    81.858    
               rinn:    5.9078    
               qcoe:    0.0000    
               qyuk:    0.0000    
               qwid:   0.10000E-01
                rcs:    6.4398      3.5339    
            lambdas:    1.0000      1.0000    
L=2  Nsemic=0  Cnfigmx=3
          i=1  nzeta=1  polorb=0  (3d)
            splnorm:   0.15000    
               vcte:    14.174    
               rinn:    2.3575    
               qcoe:    0.0000    
               qyuk:    0.0000    
               qwid:   0.10000E-01
                rcs:    3.9159    
            lambdas:    1.0000    
-------------------------------------------------------------------------------
L=0  Nkbl=1  erefs: 0.17977+309
L=1  Nkbl=1  erefs: 0.17977+309
L=2  Nkbl=1  erefs: 0.17977+309
L=3  Nkbl=1  erefs: 0.17977+309
===============================================================================
</basis_specs>

atom: Called for Si                    (Z =  14)

read_vps: Pseudopotential generation method:
read_vps: ATM3      Troullier-Martins                       
Valence charge for ps generation:    4.00000

xc_check: Exchange-correlation functional:
xc_check: Hybrid Heyd-Scuseria-Ernzerhof 2006
 (JCP 125, 224106, 2006)
xc_check: WARNING: Pseudopotential generated with GGA PBE functional
V l=0 = -2*Zval/r beyond r=  2.7826
V l=1 = -2*Zval/r beyond r=  2.7826
V l=2 = -2*Zval/r beyond r=  2.7826
V l=3 = -2*Zval/r beyond r=  2.7826
All V_l potentials equal beyond r=  1.8652
This should be close to max(r_c) in ps generation
All pots = -2*Zval/r beyond r=  2.7826
Using large-core scheme for Vlocal

atom: Estimated core radius    2.78258

atom: Including non-local core corrections could be a good idea
atom: Maximum radius for 4*pi*r*r*local-pseudopot. charge    3.07525
atom: Maximum radius for r*vlocal+2*Zval:    2.81758
GHOST: No ghost state for L =  0
GHOST: No ghost state for L =  1
GHOST: No ghost state for L =  2
GHOST: No ghost state for L =  3

KBgen: Kleinman-Bylander projectors: 
   l= 0   rc=  1.936440   el= -0.791474   Ekb=  4.527346   kbcos=  0.300929
   l= 1   rc=  1.936440   el= -0.300649   Ekb=  1.471620   kbcos=  0.304055
   l= 2   rc=  1.936440   el=  0.001958   Ekb= -2.865202   kbcos= -0.050894
   l= 3   rc=  1.936440   el=  0.003046   Ekb= -0.889187   kbcos= -0.005274

KBgen: Total number of Kleinman-Bylander projectors:   16
atom: -------------------------------------------------------------------------

atom: SANKEY-TYPE ORBITALS:
atom: Selected multiple-zeta basis: split     

atom: basis set generated (by rescaling the valence charge)
atom: for a cation of charge   0.5565

SPLIT: Orbitals with angular momentum L= 0

SPLIT: Basis orbitals for state 3s

   izeta = 1
                 lambda =    1.000000
                     rc =    5.674097
                 energy =   -1.193786
                kinetic =    0.571580
    potential(screened) =   -1.765366
       potential(ionic) =   -3.820386

   izeta = 2
                 rmatch =    2.035732
              splitnorm =    1.097306
                 energy =    5.434304
                kinetic =    4.530235
    potential(screened) =    0.904069
       potential(ionic) =   -1.842010

SPLIT: Orbitals with angular momentum L= 1

SPLIT: Basis orbitals for state 3p

   izeta = 1
                 lambda =    1.000000
                     rc =    6.429618
                 energy =   -0.660481
                kinetic =    0.968387
    potential(screened) =   -1.628868
       potential(ionic) =   -3.553429

   izeta = 2
                 rmatch =    3.528569
              splitnorm =    0.437886
                 energy =   -0.224636
                kinetic =    2.046251
    potential(screened) =   -2.270887
       potential(ionic) =   -4.455596

SPLIT: Orbitals with angular momentum L= 2

SPLIT: Basis orbitals for state 3d

   izeta = 1
                 lambda =    1.000000
                     rc =    3.899691
                 energy =    0.499133
                kinetic =    3.167061
    potential(screened) =   -2.667928
       potential(ionic) =   -4.768972
atom: Total number of Sankey-type orbitals: 13

atm_pop: Valence configuration (for local Pseudopot. screening):
 3s( 2.00)                                                            
 3p( 2.00)                                                            
 3d( 0.00)                                                            
Vna: chval, zval:    4.00000   4.00000

Vna:  Cut-off radius for the neutral-atom potential:   6.429618

atom: _________________________________________________________________________

prinput: Basis input ----------------------------------------------------------

PAO.BasisType split     

%block ChemicalSpeciesLabel
    1   14 Si                      # Species index, atomic number, species label
%endblock ChemicalSpeciesLabel

%block PAO.Basis                 # Define Basis set
Si                    3   0.556            # Label, l-shells, ionic net charge
 n=3   0   2                         # n, l, Nzeta 
   5.674      2.036   
   1.000      1.000   
 n=3   1   2                         # n, l, Nzeta 
   6.430      3.529   
   1.000      1.000   
 n=3   2   1                         # n, l, Nzeta 
   3.900   
   1.000   
%endblock PAO.Basis

prinput: ----------------------------------------------------------------------

************************ Begin: HYBRID XC INITIALIZATION **********************

nao2gto_transfer: isp, inlz, ipgf, pgf_radius =     1    1    1     7.51624
nao2gto_transfer: isp, inlz, ipgf, pgf_radius =     1    1    2     3.56682
nao2gto_transfer: isp, inlz, ipgf, pgf_radius =     1    1    3     3.01452
nao2gto_transfer: isp, inlz, ipgf, pgf_radius =     1    1    4     1.96650
nao2gto_transfer: isp, inlz, ipgf, pgf_radius =     1    1    5     1.66200
nao2gto_transfer: isp, inlz, shell_radius =     1    1     7.51624     5.67410
nao2gto_transfer: isp, inlz, ipgf, pgf_radius =     1    2    1     3.00435
nao2gto_transfer: isp, inlz, ipgf, pgf_radius =     1    2    2     2.53914
nao2gto_transfer: isp, inlz, ipgf, pgf_radius =     1    2    3     2.14597
nao2gto_transfer: isp, inlz, ipgf, pgf_radius =     1    2    4     1.81367
nao2gto_transfer: isp, inlz, ipgf, pgf_radius =     1    2    5     1.53283
nao2gto_transfer: isp, inlz, shell_radius =     1    2     3.00435     2.03573
nao2gto_transfer: isp, inlz, ipgf, pgf_radius =     1    3    1     8.70808
nao2gto_transfer: isp, inlz, ipgf, pgf_radius =     1    3    2     4.61954
nao2gto_transfer: isp, inlz, ipgf, pgf_radius =     1    3    3     3.30435
nao2gto_transfer: isp, inlz, ipgf, pgf_radius =     1    3    4     2.51294
nao2gto_transfer: isp, inlz, shell_radius =     1    3     8.70808     6.42962
nao2gto_transfer: isp, inlz, ipgf, pgf_radius =     1    4    1     4.32925
nao2gto_transfer: isp, inlz, ipgf, pgf_radius =     1    4    2     3.62850
nao2gto_transfer: isp, inlz, ipgf, pgf_radius =     1    4    3     3.04072
nao2gto_transfer: isp, inlz, ipgf, pgf_radius =     1    4    4     2.54777
nao2gto_transfer: isp, inlz, shell_radius =     1    4     4.32925     3.52857
nao2gto_transfer: isp, inlz, ipgf, pgf_radius =     1    5    1     5.71015
nao2gto_transfer: isp, inlz, ipgf, pgf_radius =     1    5    2     2.89611
nao2gto_transfer: isp, inlz, ipgf, pgf_radius =     1    5    3     2.40743
nao2gto_transfer: isp, inlz, ipgf, pgf_radius =     1    5    4     1.99995
nao2gto_transfer: isp, inlz, shell_radius =     1    5     5.71015     3.89969
nao2gto_transfer: isp, kind_radius =     1     8.70808

nao2gto_print_info: NAO2GTO fitting information -------------------------------

# %%% HYBRID XC FDF BEGIN

# XC parameters with a short-range EXX potential
XC.functional   GGA
XC.authors      HSE06

# The NAO2GTO block is structured as following:
#
#     species1 norbs_species1
#     n1 l1 zeta1 ngaussians_orbital1
#     exponent_gaussian1 coefficient_gaussian1
#     exponent_gaussian2 coefficient_gaussian2
#     exponent_gaussian3 coefficient_gaussian3
#     ...
#     n2 l2 zeta2 ngaussians_orbital2
#     exponent_gaussian1 coefficient_gaussian1
#     ...
#     species2 norbs_species2
#     ...
#
%block NAO2GTO
Si   5
3  0  1  5
    0.16303247E+00     0.63383670E+00
    0.72395647E+00     0.15046193E+01
    0.10135390E+01    -0.24932928E+01
    0.23816944E+01     0.10284758E+01
    0.33343721E+01    -0.39166455E+00
3  0  2  5
    0.10204082E+01     0.26922872E+01
    0.14285715E+01    -0.57983459E+01
    0.20000000E+01    -0.10201836E+02
    0.28000000E+01     0.16476430E+02
    0.39199999E+01    -0.57551709E+01
3  1  1  4
    0.15000000E+00     0.21382045E+00
    0.50330623E+00     0.44835493E+00
    0.95300463E+00    -0.31444340E+00
    0.16044378E+01     0.82939668E-01
3  1  2  4
    0.56960348E+00     0.39336859E+01
    0.79744486E+00    -0.57162678E+01
    0.11164228E+01     0.32400072E+01
    0.15629919E+01    -0.73843893E+00
3  2  1  4
    0.38934207E+00     0.46504665E+00
    0.13516736E+01     0.27829141E+00
    0.18923430E+01     0.85799466E+00
    0.26492802E+01    -0.44406486E+00
%endblock NAO2GTO

# Hartree-Fock exchange options
HFX.UseFittedNAOs                    T
HFX.TruncateDM                    T
HFX.DumpFitData                   T
HFX.FarField                      T
HFX.FitDataPoints               500
HFX.FarFieldTolerance     0.100E-05
HFX.PairListTolerance     0.100E-05
HFX.SchwarzTolerance      0.100E-05
HFX.StoreERIsTolerance    0.100E-05
HFX.Omega                 0.110E+00
HFX.MaximumNumberGaussians-S                  6
HFX.MaximumNumberGaussians-P                  5
HFX.MaximumNumberGaussians-D                  4
HFX.SeparationExponents                 0.140E+01
HFX.ToleranceFit                 0.100E-02
HFX.GaussianEPS                 0.100E-03
HFX.Dynamic_parallel                    F
HFX.FragSize               60000

# %%% HYBRID XC FDF END

nao2gto_print_info: END -------------------------------------------------------

Si   5
************************ End: HYBRID XC INITIALIZATION ************************

coor:   Atomic-coordinates input format  =     Fractional

siesta: Atomic coordinates (Bohr) and species
siesta:      0.00000   0.00000   0.00000  1        1
siesta:      0.00000   5.13061   5.13061  1        2
siesta:      5.13061   0.00000   5.13061  1        3
siesta:      5.13061   5.13061   0.00000  1        4
siesta:      7.69591   2.56530   7.69591  1        5
siesta:      2.56530   2.56530   2.56530  1        6
siesta:      2.56530   7.69591   7.69591  1        7
siesta:      7.69591   7.69591   2.56530  1        8
siesta:     10.26122   0.00000   0.00000  1        9
siesta:     10.26122   5.13061   5.13061  1       10
siesta:     15.39183   0.00000   5.13061  1       11
siesta:     15.39183   5.13061   0.00000  1       12
siesta:     17.95713   2.56530   7.69591  1       13
siesta:     12.82652   2.56530   2.56530  1       14
siesta:     12.82652   7.69591   7.69591  1       15
siesta:     17.95713   7.69591   2.56530  1       16
siesta:      0.00000  10.26122   0.00000  1       17
siesta:      0.00000  15.39183   5.13061  1       18
siesta:      5.13061  10.26122   5.13061  1       19
siesta:      5.13061  15.39183   0.00000  1       20
siesta:      7.69591  12.82652   7.69591  1       21
siesta:      2.56530  12.82652   2.56530  1       22
siesta:      2.56530  17.95713   7.69591  1       23
siesta:      7.69591  17.95713   2.56530  1       24
siesta:     10.26122  10.26122   0.00000  1       25
siesta:     10.26122  15.39183   5.13061  1       26
siesta:     15.39183  10.26122   5.13061  1       27
siesta:     15.39183  15.39183   0.00000  1       28
siesta:     17.95713  12.82652   7.69591  1       29
siesta:     12.82652  12.82652   2.56530  1       30
siesta:     12.82652  17.95713   7.69591  1       31
siesta:     17.95713  17.95713   2.56530  1       32
siesta:      0.00000   0.00000  10.26122  1       33
siesta:      0.00000   5.13061  15.39183  1       34
siesta:      5.13061   0.00000  15.39183  1       35
siesta:      5.13061   5.13061  10.26122  1       36
siesta:      7.69591   2.56530  17.95713  1       37
siesta:      2.56530   2.56530  12.82652  1       38
siesta:      2.56530   7.69591  17.95713  1       39
siesta:      7.69591   7.69591  12.82652  1       40
siesta:     10.26122   0.00000  10.26122  1       41
siesta:     10.26122   5.13061  15.39183  1       42
siesta:     15.39183   0.00000  15.39183  1       43
siesta:     15.39183   5.13061  10.26122  1       44
siesta:     17.95713   2.56530  17.95713  1       45
siesta:     12.82652   2.56530  12.82652  1       46
siesta:     12.82652   7.69591  17.95713  1       47
siesta:     17.95713   7.69591  12.82652  1       48
siesta:      0.00000  10.26122  10.26122  1       49
siesta:      0.00000  15.39183  15.39183  1       50
siesta:      5.13061  10.26122  15.39183  1       51
siesta:      5.13061  15.39183  10.26122  1       52
siesta:      7.69591  12.82652  17.95713  1       53
siesta:      2.56530  12.82652  12.82652  1       54
siesta:      2.56530  17.95713  17.95713  1       55
siesta:      7.69591  17.95713  12.82652  1       56
siesta:     10.26122  10.26122  10.26122  1       57
siesta:     10.26122  15.39183  15.39183  1       58
siesta:     15.39183  10.26122  15.39183  1       59
siesta:     15.39183  15.39183  10.26122  1       60
siesta:     17.95713  12.82652  17.95713  1       61
siesta:     12.82652  12.82652  12.82652  1       62
siesta:     12.82652  17.95713  17.95713  1       63
siesta:     17.95713  17.95713  12.82652  1       64
siesta:      0.00000   0.00000  20.52243  1       65
siesta:      0.00000   5.13061  25.65304  1       66
siesta:      5.13061   0.00000  25.65304  1       67
siesta:      5.13061   5.13061  20.52243  1       68
siesta:      7.69591   2.56530  28.21835  1       69
siesta:      2.56530   2.56530  23.08774  1       70
siesta:      2.56530   7.69591  28.21835  1       71
siesta:      7.69591   7.69591  23.08774  1       72
siesta:     10.26122   0.00000  20.52243  1       73
siesta:     10.26122   5.13061  25.65304  1       74
siesta:     15.39183   0.00000  25.65304  1       75
siesta:     15.39183   5.13061  20.52243  1       76
siesta:     17.95713   2.56530  28.21835  1       77
siesta:     12.82652   2.56530  23.08774  1       78
siesta:     12.82652   7.69591  28.21835  1       79
siesta:     17.95713   7.69591  23.08774  1       80
siesta:      0.00000  10.26122  20.52243  1       81
siesta:      0.00000  15.39183  25.65304  1       82
siesta:      5.13061  10.26122  25.65304  1       83
siesta:      5.13061  15.39183  20.52243  1       84
siesta:      7.69591  12.82652  28.21835  1       85
siesta:      2.56530  12.82652  23.08774  1       86
siesta:      2.56530  17.95713  28.21835  1       87
siesta:      7.69591  17.95713  23.08774  1       88
siesta:     10.26122  10.26122  20.52243  1       89
siesta:     10.26122  15.39183  25.65304  1       90
siesta:     15.39183  10.26122  25.65304  1       91
siesta:     15.39183  15.39183  20.52243  1       92
siesta:     17.95713  12.82652  28.21835  1       93
siesta:     12.82652  12.82652  23.08774  1       94
siesta:     12.82652  17.95713  28.21835  1       95
siesta:     17.95713  17.95713  23.08774  1       96
siesta:      0.00000   0.00000  30.78365  1       97
siesta:      0.00000   5.13061  35.91426  1       98
siesta:      5.13061   0.00000  35.91426  1       99
siesta:      5.13061   5.13061  30.78365  1      100
siesta:      7.69591   2.56530  38.47956  1      101
siesta:      2.56530   2.56530  33.34896  1      102
siesta:      2.56530   7.69591  38.47956  1      103
siesta:      7.69591   7.69591  33.34896  1      104
siesta:     10.26122   0.00000  30.78365  1      105
siesta:     10.26122   5.13061  35.91426  1      106
siesta:     15.39183   0.00000  35.91426  1      107
siesta:     15.39183   5.13061  30.78365  1      108
siesta:     17.95713   2.56530  38.47956  1      109
siesta:     12.82652   2.56530  33.34896  1      110
siesta:     12.82652   7.69591  38.47956  1      111
siesta:     17.95713   7.69591  33.34896  1      112
siesta:      0.00000  10.26122  30.78365  1      113
siesta:      0.00000  15.39183  35.91426  1      114
siesta:      5.13061  10.26122  35.91426  1      115
siesta:      5.13061  15.39183  30.78365  1      116
siesta:      7.69591  12.82652  38.47956  1      117
siesta:      2.56530  12.82652  33.34896  1      118
siesta:      2.56530  17.95713  38.47956  1      119
siesta:      7.69591  17.95713  33.34896  1      120
siesta:     10.26122  10.26122  30.78365  1      121
siesta:     10.26122  15.39183  35.91426  1      122
siesta:     15.39183  10.26122  35.91426  1      123
siesta:     15.39183  15.39183  30.78365  1      124
siesta:     17.95713  12.82652  38.47956  1      125
siesta:     12.82652  12.82652  33.34896  1      126
siesta:     12.82652  17.95713  38.47956  1      127
siesta:     17.95713  17.95713  33.34896  1      128

siesta: System type = bulk      

initatomlists: Number of atoms, orbitals, and projectors:    128  1664  2048

siesta: ******************** Simulation parameters ****************************
siesta:
siesta: The following are some of the parameters of the simulation.
siesta: A complete list of the parameters used, including default values,
siesta: can be found in file out.fdf
siesta:
redata: Spin configuration                          = none
redata: Number of spin components                   = 1
redata: Time-Reversal Symmetry                      = T
redata: Spin spiral                                 = F
redata: Long output                                 =   F
redata: Number of Atomic Species                    =        1
redata: Charge density info will appear in .RHO file
redata: Write Mulliken Pop.                         = NO
redata: Matel table size (NRTAB)                    =     1024
redata: Mesh Cutoff                                 =   250.0000 Ry
redata: Net charge of the system                    =     0.0000 |e|
redata: Min. number of SCF Iter                     =        0
redata: Max. number of SCF Iter                     =       50
redata: SCF convergence failure will abort job
redata: SCF mix quantity                            = Hamiltonian
redata: Mix DM or H after convergence               =   F
redata: Recompute H after scf cycle                 =   F
redata: Mix DM in first SCF step                    =   T
redata: Write Pulay info on disk                    =   F
redata: New DM Occupancy tolerance                  = 0.000000000001
redata: No kicks to SCF
redata: DM Mixing Weight for Kicks                  =     0.5000
redata: Require Harris convergence for SCF          =   F
redata: Harris energy tolerance for SCF             =     0.000100 eV
redata: Require DM convergence for SCF              =   T
redata: DM tolerance for SCF                        =     0.000100
redata: Require EDM convergence for SCF             =   F
redata: EDM tolerance for SCF                       =     0.001000 eV
redata: Require H convergence for SCF               =   T
redata: Hamiltonian tolerance for SCF               =     0.001000 eV
redata: Require (free) Energy convergence for SCF   =   F
redata: (free) Energy tolerance for SCF             =     0.000100 eV
redata: Using Saved Data (generic)                  =   F
redata: Use continuation files for DM               =   F
redata: Neglect nonoverlap interactions             =   F
redata: Method of Calculation                       = Diagonalization
redata: Electronic Temperature                      =   290.1109 K
redata: Fix the spin of the system                  =   F
redata: Dynamics option                             = Single-point calculation
mix.SCF: Pulay mixing                            = Pulay
mix.SCF:    Variant                              = stable
mix.SCF:    History steps                        = 6
mix.SCF:    Linear mixing weight                 =     0.200000
mix.SCF:    Mixing weight                        =     0.200000
mix.SCF:    SVD condition                        = 0.1000E-07
redata: ***********************************************************************

%block SCF.Mixers
  Pulay
%endblock SCF.Mixers

%block SCF.Mixer.Pulay
  # Mixing method
  method pulay
  variant stable

  # Mixing options
  weight 0.2000
  weight.linear 0.2000
  history 6
%endblock SCF.Mixer.Pulay
 
DM_history_depth set to one: no extrapolation allowed by default for geometry relaxation
Size of DM history Fstack: 1
Total number of electrons:   512.000000
Total ionic charge:   512.000000

* ProcessorY, Blocksize:    8  13


* Orbital distribution balance (max,min):    13    13

 Kpoints in:            1 . Kpoints trimmed:            1

siesta: k-grid: Number of k-points =     1
siesta: k-grid: Cutoff (effective) =     5.430 Ang
siesta: k-grid: Supercell and displacements
siesta: k-grid:    1   0   0      0.000
siesta: k-grid:    0   1   0      0.000
siesta: k-grid:    0   0   1      0.000
 
diag: Algorithm                                     = D&C
diag: Parallel over k                               =   F
diag: Use parallel 2D distribution                  =   T
diag: Parallel block-size                           = 13
diag: Parallel distribution                         =     8 x    16
diag: Used triangular part                          = Lower
diag: Absolute tolerance                            =  0.100E-15
diag: Orthogonalization factor                      =  0.100E-05
diag: Memory factor                                 =  1.0000
 
 
ts: **************************************************************
ts: Save H and S matrices                           =    F
ts: Save DM and EDM matrices                        =    F
ts: Only save the overlap matrix S                  =    F
ts: **************************************************************
 
************************ Begin: TS CHECKS AND WARNINGS ************************
************************ End: TS CHECKS AND WARNINGS **************************


                     ====================================
                        Single-point calculation
                     ====================================

outcoor: Atomic coordinates (fractional):                   
    0.00000000    0.00000000    0.00000000   1       1  Si
    0.00000000    0.25000000    0.12500000   1       2  Si
    0.25000000    0.00000000    0.12500000   1       3  Si
    0.25000000    0.25000000    0.00000000   1       4  Si
    0.37500000    0.12500000    0.18750000   1       5  Si
    0.12500000    0.12500000    0.06250000   1       6  Si
    0.12500000    0.37500000    0.18750000   1       7  Si
    0.37500000    0.37500000    0.06250000   1       8  Si
    0.50000000    0.00000000    0.00000000   1       9  Si
    0.50000000    0.25000000    0.12500000   1      10  Si
    0.75000000    0.00000000    0.12500000   1      11  Si
    0.75000000    0.25000000    0.00000000   1      12  Si
    0.87500000    0.12500000    0.18750000   1      13  Si
    0.62500000    0.12500000    0.06250000   1      14  Si
    0.62500000    0.37500000    0.18750000   1      15  Si
    0.87500000    0.37500000    0.06250000   1      16  Si
    0.00000000    0.50000000    0.00000000   1      17  Si
    0.00000000    0.75000000    0.12500000   1      18  Si
    0.25000000    0.50000000    0.12500000   1      19  Si
    0.25000000    0.75000000    0.00000000   1      20  Si
    0.37500000    0.62500000    0.18750000   1      21  Si
    0.12500000    0.62500000    0.06250000   1      22  Si
    0.12500000    0.87500000    0.18750000   1      23  Si
    0.37500000    0.87500000    0.06250000   1      24  Si
    0.50000000    0.50000000    0.00000000   1      25  Si
    0.50000000    0.75000000    0.12500000   1      26  Si
    0.75000000    0.50000000    0.12500000   1      27  Si
    0.75000000    0.75000000    0.00000000   1      28  Si
    0.87500000    0.62500000    0.18750000   1      29  Si
    0.62500000    0.62500000    0.06250000   1      30  Si
    0.62500000    0.87500000    0.18750000   1      31  Si
    0.87500000    0.87500000    0.06250000   1      32  Si
    0.00000000    0.00000000    0.25000000   1      33  Si
    0.00000000    0.25000000    0.37500000   1      34  Si
    0.25000000    0.00000000    0.37500000   1      35  Si
    0.25000000    0.25000000    0.25000000   1      36  Si
    0.37500000    0.12500000    0.43750000   1      37  Si
    0.12500000    0.12500000    0.31250000   1      38  Si
    0.12500000    0.37500000    0.43750000   1      39  Si
    0.37500000    0.37500000    0.31250000   1      40  Si
    0.50000000    0.00000000    0.25000000   1      41  Si
    0.50000000    0.25000000    0.37500000   1      42  Si
    0.75000000    0.00000000    0.37500000   1      43  Si
    0.75000000    0.25000000    0.25000000   1      44  Si
    0.87500000    0.12500000    0.43750000   1      45  Si
    0.62500000    0.12500000    0.31250000   1      46  Si
    0.62500000    0.37500000    0.43750000   1      47  Si
    0.87500000    0.37500000    0.31250000   1      48  Si
    0.00000000    0.50000000    0.25000000   1      49  Si
    0.00000000    0.75000000    0.37500000   1      50  Si
    0.25000000    0.50000000    0.37500000   1      51  Si
    0.25000000    0.75000000    0.25000000   1      52  Si
    0.37500000    0.62500000    0.43750000   1      53  Si
    0.12500000    0.62500000    0.31250000   1      54  Si
    0.12500000    0.87500000    0.43750000   1      55  Si
    0.37500000    0.87500000    0.31250000   1      56  Si
    0.50000000    0.50000000    0.25000000   1      57  Si
    0.50000000    0.75000000    0.37500000   1      58  Si
    0.75000000    0.50000000    0.37500000   1      59  Si
    0.75000000    0.75000000    0.25000000   1      60  Si
    0.87500000    0.62500000    0.43750000   1      61  Si
    0.62500000    0.62500000    0.31250000   1      62  Si
    0.62500000    0.87500000    0.43750000   1      63  Si
    0.87500000    0.87500000    0.31250000   1      64  Si
    0.00000000    0.00000000    0.50000000   1      65  Si
    0.00000000    0.25000000    0.62500000   1      66  Si
    0.25000000    0.00000000    0.62500000   1      67  Si
    0.25000000    0.25000000    0.50000000   1      68  Si
    0.37500000    0.12500000    0.68750000   1      69  Si
    0.12500000    0.12500000    0.56250000   1      70  Si
    0.12500000    0.37500000    0.68750000   1      71  Si
    0.37500000    0.37500000    0.56250000   1      72  Si
    0.50000000    0.00000000    0.50000000   1      73  Si
    0.50000000    0.25000000    0.62500000   1      74  Si
    0.75000000    0.00000000    0.62500000   1      75  Si
    0.75000000    0.25000000    0.50000000   1      76  Si
    0.87500000    0.12500000    0.68750000   1      77  Si
    0.62500000    0.12500000    0.56250000   1      78  Si
    0.62500000    0.37500000    0.68750000   1      79  Si
    0.87500000    0.37500000    0.56250000   1      80  Si
    0.00000000    0.50000000    0.50000000   1      81  Si
    0.00000000    0.75000000    0.62500000   1      82  Si
    0.25000000    0.50000000    0.62500000   1      83  Si
    0.25000000    0.75000000    0.50000000   1      84  Si
    0.37500000    0.62500000    0.68750000   1      85  Si
    0.12500000    0.62500000    0.56250000   1      86  Si
    0.12500000    0.87500000    0.68750000   1      87  Si
    0.37500000    0.87500000    0.56250000   1      88  Si
    0.50000000    0.50000000    0.50000000   1      89  Si
    0.50000000    0.75000000    0.62500000   1      90  Si
    0.75000000    0.50000000    0.62500000   1      91  Si
    0.75000000    0.75000000    0.50000000   1      92  Si
    0.87500000    0.62500000    0.68750000   1      93  Si
    0.62500000    0.62500000    0.56250000   1      94  Si
    0.62500000    0.87500000    0.68750000   1      95  Si
    0.87500000    0.87500000    0.56250000   1      96  Si
    0.00000000    0.00000000    0.75000000   1      97  Si
    0.00000000    0.25000000    0.87500000   1      98  Si
    0.25000000    0.00000000    0.87500000   1      99  Si
    0.25000000    0.25000000    0.75000000   1     100  Si
    0.37500000    0.12500000    0.93750000   1     101  Si
    0.12500000    0.12500000    0.81250000   1     102  Si
    0.12500000    0.37500000    0.93750000   1     103  Si
    0.37500000    0.37500000    0.81250000   1     104  Si
    0.50000000    0.00000000    0.75000000   1     105  Si
    0.50000000    0.25000000    0.87500000   1     106  Si
    0.75000000    0.00000000    0.87500000   1     107  Si
    0.75000000    0.25000000    0.75000000   1     108  Si
    0.87500000    0.12500000    0.93750000   1     109  Si
    0.62500000    0.12500000    0.81250000   1     110  Si
    0.62500000    0.37500000    0.93750000   1     111  Si
    0.87500000    0.37500000    0.81250000   1     112  Si
    0.00000000    0.50000000    0.75000000   1     113  Si
    0.00000000    0.75000000    0.87500000   1     114  Si
    0.25000000    0.50000000    0.87500000   1     115  Si
    0.25000000    0.75000000    0.75000000   1     116  Si
    0.37500000    0.62500000    0.93750000   1     117  Si
    0.12500000    0.62500000    0.81250000   1     118  Si
    0.12500000    0.87500000    0.93750000   1     119  Si
    0.37500000    0.87500000    0.81250000   1     120  Si
    0.50000000    0.50000000    0.75000000   1     121  Si
    0.50000000    0.75000000    0.87500000   1     122  Si
    0.75000000    0.50000000    0.87500000   1     123  Si
    0.75000000    0.75000000    0.75000000   1     124  Si
    0.87500000    0.62500000    0.93750000   1     125  Si
    0.62500000    0.62500000    0.81250000   1     126  Si
    0.62500000    0.87500000    0.93750000   1     127  Si
    0.87500000    0.87500000    0.81250000   1     128  Si

outcell: Unit cell vectors (Ang):
       10.860000    0.000000    0.000000
        0.000000   10.860000    0.000000
        0.000000    0.000000   21.720000

outcell: Cell vector modules (Ang)   :   10.860000   10.860000   21.720000
outcell: Cell angles (23,13,12) (deg):     90.0000     90.0000     90.0000
outcell: Cell volume (Ang**3)        :   2561.6481
Gamma-point calculation with interaction between periodic images
Some features might not work optimally:
e.g. DM initialization from atomic data
<dSpData1D:S at geom step 0
  <sparsity:sparsity for geom step 0
    nrows_g=1664 nrows=13 sparsity=.0039 nnzs=10727, refcount: 7>
  <dData1D:(new from dSpData1D) n=10727, refcount: 1>
refcount: 1>
new_DM -- step:     1
Initializing Density Matrix...
DM filled with atomic data:
<dSpData2D:DM initialized from atoms
  <sparsity:sparsity for geom step 0
    nrows_g=1664 nrows=13 sparsity=.0039 nnzs=10727, refcount: 8>
  <dData2D:DM n=10727 m=1, refcount: 1>
refcount: 1>
calc_prescreen_eri: max_eri_prescreen      0.15112031E+01
init_prescreen_eri: nelem_ij =         1664
init_prescreen_eri: nelem_kl =         1664
init_prescreen_eri: list_ij  :        59072
init_prescreen_eri: list_kl  :        59072
init_prescreen_eri: max_eri =         0.151120E+01
No. of atoms with KB's overlaping orbs in proc 0. Max # of overlaps:      33     239

InitMesh: MESH =   108 x   108 x   216 =     2519424
InitMesh: (bp) =    54 x    54 x   108 =      314928
InitMesh: Mesh cutoff (required, used) =   250.000   273.331 Ry
ExtMesh (bp) on 0 =   146 x    99 x    99 =     1430946
Setting up quadratic distribution...
ExtMesh (bp) on 0 =   106 x   106 x   105 =     1179780
PhiOnMesh: Number of (b)points on node 0 =                 2548
PhiOnMesh: nlist on node 0 =               301435
setup_hfx: call #0001
 setup_hfx: HFX energy:       -740.172604  eV

stepf: Fermi-Dirac step function
setup_hfx: call #0002
 setup_hfx: HFX energy:       -716.648827  eV

siesta: Program's energy decomposition (eV):
siesta: Ebs     =     -4821.673860
siesta: Eions   =     23906.338943
siesta: Ena     =      6797.495853
siesta: Ekin    =      5281.092096
siesta: Enl     =      1784.886482
siesta: Eso     =         0.000000
siesta: Edftu   =         0.000000
siesta: DEna    =       513.122479
siesta: DUscf   =        22.650867
siesta: DUext   =         0.000000
siesta: Exc     =     -4186.647380
siesta: eta*DQ  =         0.000000
siesta: Emadel  =         0.000000
siesta: Emeta   =         0.000000
siesta: Emolmec =         0.000000
siesta: Ekinion =         0.000000
siesta: Eharris =    -13876.359459
siesta: Etot    =    -13693.738545
siesta: FreeEng =    -13693.738546

        iscf     Eharris(eV)        E_KS(eV)     FreeEng(eV)     dDmax    Ef(eV) dHmax(eV)
   scf:    1   -13876.359459   -13693.738545   -13693.738546  0.915377 -2.813739  0.322564
timer: Routine,Calls,Time,% = IterSCF        1     111.856  56.31
setup_hfx: call #0003
 setup_hfx: HFX energy:       -717.954085  eV
   scf:    2   -13695.554970   -13694.645884   -13694.645884  0.010940 -2.874397  0.253730
setup_hfx: call #0004
 setup_hfx: HFX energy:       -722.567904  eV
   scf:    3   -13697.970877   -13696.277967   -13696.277967  0.039890 -3.037728  0.116862
setup_hfx: call #0005
 setup_hfx: HFX energy:       -722.973352  eV
   scf:    4   -13696.367642   -13696.319176   -13696.319176  0.011124 -3.112395  0.012760
setup_hfx: call #0006
 setup_hfx: HFX energy:       -722.989390  eV
   scf:    5   -13696.319491   -13696.319311   -13696.319311  0.000418 -3.109655  0.005597
setup_hfx: call #0007
 setup_hfx: HFX energy:       -722.997605  eV
   scf:    6   -13696.319375   -13696.319330   -13696.319330  0.000176 -3.109234  0.003550
setup_hfx: call #0008
 setup_hfx: HFX energy:       -723.013959  eV
   scf:    7   -13696.319284   -13696.319255   -13696.319255  0.000198 -3.112354  0.000118
setup_hfx: call #0009
 setup_hfx: HFX energy:       -723.014004  eV
   scf:    8   -13696.319256   -13696.319256   -13696.319256  0.000004 -3.112388  0.000047

SCF Convergence by DM+H criterion
max |DM_out - DM_in|         :     0.0000041638
max |H_out - H_in|      (eV) :     0.0000468582
SCF cycle converged after 8 iterations

Using DM_out to compute the final energy and forces
No. of atoms with KB's overlaping orbs in proc 0. Max # of overlaps:      33     239
setup_hfx: call #0010
 setup_hfx: HFX energy:       -723.014004  eV

siesta: E_KS(eV) =           -13696.3193

siesta: E_KS - E_eggbox =    -13696.3193

siesta: Atomic forces (eV/Ang):
     1   -0.001638   -0.001608   -0.000037
     2   -0.001643   -0.001700   -0.000036
     3   -0.001718   -0.001660   -0.000048
     4   -0.001634   -0.001658   -0.000036
     5   -0.001520   -0.001638    0.000030
     6   -0.001700   -0.001719    0.000042
     7   -0.001632   -0.001525    0.000050
     8   -0.001527   -0.001514   -0.000002
     9    0.001647   -0.001599    0.000037
    10    0.001651   -0.001633    0.000076
    11    0.001773   -0.001589    0.000067
    12    0.001707   -0.001670    0.000077
    13    0.001566   -0.001756    0.000009
    14    0.001580   -0.001661   -0.000036
    15    0.001556   -0.001552   -0.000076
    16    0.001504   -0.001474   -0.000074
    17   -0.001672    0.001623    0.000043
    18   -0.001608    0.001768    0.000094
    19   -0.001596    0.001635    0.000056
    20   -0.001648    0.001705    0.000068
    21   -0.001535    0.001543   -0.000071
    22   -0.001669    0.001581   -0.000008
    23   -0.001750    0.001565    0.000002
    24   -0.001484    0.001510   -0.000038
    25    0.001652    0.001674   -0.000023
    26    0.001672    0.001683   -0.000019
    27    0.001693    0.001679   -0.000013
    28    0.001708    0.001693   -0.000044
    29    0.001514    0.001663    0.000060
    30    0.001535    0.001557    0.000063
    31    0.001649    0.001483    0.000068
    32    0.001570    0.001588    0.000052
    33   -0.001656   -0.001633   -0.000094
    34   -0.001657   -0.001697   -0.000032
    35   -0.001704   -0.001661   -0.000056
    36   -0.001617   -0.001617    0.000020
    37   -0.001534   -0.001642    0.000048
    38   -0.001687   -0.001687   -0.000010
    39   -0.001632   -0.001540    0.000079
    40   -0.001557   -0.001527   -0.000011
    41    0.001664   -0.001613    0.000029
    42    0.001697   -0.001627    0.000077
    43    0.001772   -0.001598    0.000052
    44    0.001723   -0.001699    0.000092
    45    0.001570   -0.001753    0.000004
    46    0.001574   -0.001634   -0.000051
    47    0.001563   -0.001543   -0.000061
    48    0.001460   -0.001474   -0.000042
    49   -0.001645    0.001647    0.000028
    50   -0.001608    0.001753    0.000054
    51   -0.001601    0.001676    0.000041
    52   -0.001674    0.001723    0.000074
    53   -0.001534    0.001556   -0.000046
    54   -0.001653    0.001564   -0.000025
    55   -0.001746    0.001563    0.000007
    56   -0.001466    0.001504   -0.000035
    57    0.001683    0.001701    0.000011
    58    0.001681    0.001661   -0.000081
    59    0.001685    0.001684   -0.000056
    60    0.001705    0.001690   -0.000083
    61    0.001505    0.001661    0.000057
    62    0.001549    0.001566    0.000003
    63    0.001645    0.001479    0.000070
    64    0.001558    0.001575    0.000028
    65   -0.001653   -0.001633   -0.000102
    66   -0.001652   -0.001692   -0.000034
    67   -0.001702   -0.001657   -0.000057
    68   -0.001618   -0.001618    0.000013
    69   -0.001533   -0.001643    0.000058
    70   -0.001687   -0.001683   -0.000012
    71   -0.001636   -0.001538    0.000091
    72   -0.001553   -0.001524   -0.000009
    73    0.001666   -0.001621    0.000019
    74    0.001701   -0.001624    0.000079
    75    0.001769   -0.001598    0.000054
    76    0.001716   -0.001691    0.000068
    77    0.001569   -0.001757    0.000015
    78    0.001581   -0.001634   -0.000054
    79    0.001565   -0.001537   -0.000060
    80    0.001460   -0.001472   -0.000044
    81   -0.001644    0.001650    0.000024
    82   -0.001601    0.001755    0.000063
    83   -0.001605    0.001676    0.000038
    84   -0.001669    0.001729    0.000071
    85   -0.001525    0.001555   -0.000046
    86   -0.001655    0.001565   -0.000032
    87   -0.001744    0.001557    0.000010
    88   -0.001466    0.001506   -0.000037
    89    0.001676    0.001695    0.000028
    90    0.001685    0.001661   -0.000076
    91    0.001685    0.001685   -0.000052
    92    0.001700    0.001689   -0.000093
    93    0.001505    0.001653    0.000063
    94    0.001552    0.001566    0.000005
    95    0.001642    0.001482    0.000070
    96    0.001557    0.001570    0.000023
    97   -0.001653   -0.001630   -0.000124
    98   -0.001620   -0.001653   -0.000080
    99   -0.001665   -0.001627   -0.000077
   100   -0.001629   -0.001622   -0.000008
   101   -0.001464   -0.001598    0.000022
   102   -0.001689   -0.001691    0.000010
   103   -0.001581   -0.001447    0.000050
   104   -0.001556   -0.001547    0.000020
   105    0.001667   -0.001628    0.000014
   106    0.001664   -0.001641    0.000095
   107    0.001740   -0.001622    0.000067
   108    0.001711   -0.001674    0.000064
   109    0.001596   -0.001745   -0.000014
   110    0.001579   -0.001632   -0.000061
   111    0.001560   -0.001467   -0.000122
   112    0.001478   -0.001476   -0.000026
   113   -0.001656    0.001657    0.000018
   114   -0.001634    0.001732    0.000046
   115   -0.001614    0.001640    0.000065
   116   -0.001665    0.001726    0.000052
   117   -0.001459    0.001562   -0.000108
   118   -0.001653    0.001565   -0.000046
   119   -0.001733    0.001597    0.000003
   120   -0.001481    0.001528   -0.000038
   121    0.001676    0.001694    0.000020
   122    0.001628    0.001632   -0.000037
   123    0.001663    0.001620   -0.000057
   124    0.001705    0.001691   -0.000121
   125    0.001506    0.001607    0.000017
   126    0.001556    0.001555   -0.000004
   127    0.001623    0.001495    0.000000
   128    0.001547    0.001570    0.000002
----------------------------------------
   Tot    0.000300    0.000289    0.000149
----------------------------------------
   Max    0.001773
   Res    0.001325    sqrt( Sum f_i^2 / 3N )
----------------------------------------
   Max    0.001773    constrained

Stress tensor Voigt[x,y,z,yz,xz,xy] (kbar):     -287.33     -287.33     -280.72       -0.00       -0.00       -0.00
(Free)E + p*V (eV/cell)   -13240.4504
Target enthalpy (eV/cell)   -13696.3193

siesta: Program's energy decomposition (eV):
siesta: Ebs     =     -4802.328130
siesta: Eions   =     23906.338943
siesta: Ena     =      6797.495853
siesta: Ekin    =      5337.049632
siesta: Enl     =      1758.824001
siesta: Eso     =         0.000000
siesta: Edftu   =         0.000000
siesta: DEna    =       494.503706
siesta: DUscf   =        25.236943
siesta: DUext   =         0.000000
siesta: Exc     =     -4203.090447
siesta: eta*DQ  =         0.000000
siesta: Emadel  =         0.000000
siesta: Emeta   =         0.000000
siesta: Emolmec =         0.000000
siesta: Ekinion =         0.000000
siesta: Eharris =    -13696.319256
siesta: Etot    =    -13696.319256
siesta: FreeEng =    -13696.319256

siesta: Final energy (eV):
siesta:  Band Struct. =   -4802.328130
siesta:       Kinetic =    5337.049632
siesta:       Hartree =     968.927146
siesta:       Edftu   =       0.000000
siesta:       Eso     =       0.000000
siesta:    Ext. field =       0.000000
siesta:   Exch.-corr. =   -4203.090447
siesta:  Ion-electron =   -6173.835296
siesta:       Ion-ion =   -9625.370291
siesta:       Ekinion =       0.000000
siesta:         Total =  -13696.319256
siesta:         Fermi =      -3.112388

siesta: Stress tensor (static) (eV/Ang**3):
siesta:    -0.179334    0.000000   -0.000000
siesta:    -0.000000   -0.179334   -0.000000
siesta:    -0.000000   -0.000000   -0.175210

siesta: Cell volume =       2561.648112 Ang**3

siesta: Pressure (static):
siesta:                Solid            Molecule  Units
siesta:           0.00193820          0.00193661  Ry/Bohr**3
siesta:           0.17795922          0.17781294  eV/Ang**3
siesta:         285.12518758        284.89081946  kBar
(Free)E+ p_basis*V_orbitals  =      -13559.512475
(Free)Eharris+ p_basis*V_orbitals  =      -13559.512475

cite: Please see "Sibulk.bib" for an exhaustive BiBTeX file.
cite: Please clearly indicate Siesta version in published work: 4.1.5
cite: This calculation has made use of the following articles
cite: which are encouraged to be cited in a published work.
        Primary SIESTA paper
          DOI: www.doi.org/10.1088/0953-8984/14/11/302
 
>> End of run:  18-JUN-2025   9:58:08
Job completed
