Siesta Version  : v4.1-b4-351
Architecture    : x86_64-linux-n-62-26-19
Compiler version: GNU Fortran (GCC) 9.3.0
Compiler flags  : mpifort -m64 -fPIC -O3 -march=native -ftree-vectorize -fexpensive-optimizatioons -funroll-loops -fprefetch-loop-arrays -fno-second-underscore  -flto
PP flags        : -I/dtu/sw/dcc/SL73/2020-aug/generic/build-tools/1.0/include -I/dtu/sw/dcc/SL773/2020-aug/generic/gcc/9.3.0/include -I/dtu/sw/dcc/SL73/2020-aug/generic/gcc/9.3.0/include -I/dtu/sw/dcc/SL73/2020-aug/XeonE5-2660v3/gnu/9.3.0/zlib/1.2.11/include -I/dtu/sw/dcc/SL73/2020-aug/generic/numactl/2.0.12/include -I/dtu/sw/dcc/SL73/2020-aug/XeonE5-2660v3/gnu/9.3.0/libxml2/2.9.10/include -I/dtu/sw/dcc/SL73/2020-aug/XeonE5-2660v3/gnu/9.3.0/hwloc/2.2.0/include -I/dtu/sw/dcc/SL73/2020-aug/XeonE5-2660v3/gnu/9.3.0/knem/1.1.4/include -I/dtu/sw/dcc/SL73/2020-aug/XeonE5-2660v3/gnu/9.3.0/ucx/1.8.1/include -I/dtu/sw/dcc/SL73/2020-aug/XeonE5-2660v3/gnu/9.3.0/openmpi/4.0.4/include -I/dtu/sw/dcc/SL73/2020-aug/XeonE5-2660v3/gnu/9.3.0/szip/2.1.1/include -I/dtu/sw/dcc/SL73/2020-aug/XeonE5-2660v3/gnu/9.3.0/hdf5/1.12.0/include -I/dtu/sw/dcc/SL73/2020-aug/XeonE5-2660v3/gnu/9.3.0/pnetcdf/1.12.1/include -I/dtu/sw/dcc/SL73/2020-aug/generic/gen-zlib/1.2.11/include -I/dtu/sw/dcc/SL73/2020-aug/generic/openssl/1.1.1/include -I/dtu/sw/dcc/SL73/2020-aug/generic/libssh2/1.8.2/include -I/dtu/sw/dcc/SL73/2020-aug/generic/curl/7.65.1/include -I/dtu/sw/dcc/SL73/2020-aug/XeonE5-2660v3/gnu/9.3.0/netcdf/4.7.4/include -I/dtu/sw/dcc/SL73/2020-aug/XeonE5-2660v3/gnu/9.3.0/flook/0.8.1/include -I/dtu/sw/dcc/SL73/2020-aug/XeonE5-2660v3/gnu/9.3.0/fftw/3.3.8/include -I/dtu/sw/dcc/SL73/2020-aug/XeonE5-2660v3/gnu/9.3.0/parmetis/4.0.3/include -I/dtu/sw/dcc/SL73/2020-aug/XeonE5-2660v3/gnu/9.3.0/scalapack/2.1.0/include -I/dtu/sw/dcc/SL73/2020-aug/XeonE5-2660v3/gnu/9.3.0/lapack/3.9.0/include -I/dtu/sw/dcc/SL73/2020-aug/XeonE5-2660v3/gnu/9.3.0/blis/0.7.0/include -I/dtu/sw/dcc/SL73/2020-aug/XeonE5-2660v3/gnu/9.3.0/scotch/6.0.9/include -I/dtu/sw/dcc/SL73/2020-aug/XeonE5-2660v3/gnu/9.3.0/mumps/5.3.3/include -I/dtu/sw/dcc/SL73/2020-aug/XeonE5-2660v3/gnu/9.3.0/elpa/2020.05.001/include -DSIESTA__ELPA -DMPI -DFC_HAVE_FLUSH -DFC_HAVE_ABORT -DCDF -DCDF4 -DSIESTA__FLOOK  -DNCDF -DNCDF_4 -DNCDF_PARALLEL -DTS_NOCHECKS -DSIESTA__METIS -DSIESTA__MUMPS -DSIESTA__MRRR -I/dtu/sw/dcc/SL73/2020-aug/XeonE5-2660v3/gnu/9.3.0/elpa/2020.05.001/include/elpa
Libraries       : libncdf.a libfdict.a -lnetcdff -lnetcdf -lpnetcdf -lhdf5_hl -lhdf5 -lz  -lzmuumps -lmumps_common -lesmumps -lscotch -lscotcherr -lpord -lparmetis -lmetis -lelpa -lscalapack -llapack -lblis  -L/dtu/sw/dcc/SL73/2020-aug/XeonE5-2660v3/gnu/9.3.0/flook/0.8.1/lib -Wl,-rpath=/dtu/sw/dcc/SL73/2020-aug/XeonE5-2660v3/gnu/9.3.0/flook/0.8.1/lib -lflookall -ldl  -flto -fuse-linker-plugin  -lmetis
PARALLEL version
NetCDF support
NetCDF-4 support
NetCDF-4 MPI-IO support
METIS ordering support
Lua support

* Running on 8 nodes in parallel
>> Start of run:  23-JAN-2021   1:14:06

                           ***********************       
                           *  WELCOME TO SIESTA  *       
                           ***********************       

reinit: Reading from au_111_capacitor.fdf

reinit: -----------------------------------------------------------------------
reinit: System Name: au_111_capacitor
reinit: -----------------------------------------------------------------------
reinit: System Label: au_111_capacitor
reinit: -----------------------------------------------------------------------

initatom: Reading input for the pseudopotentials and atomic orbitals ----------
Species number:   1 Atomic number:   79 Label: Au

Ground state valence configuration:   6s01  5d10
Reading pseudopotential information in formatted form from Au.psf

Pseudopotential generated from a relativistic atomic calculation

Valence configuration for pseudopotential generation:
6s( 1.00) rc: 2.32
6p( 0.00) rc: 2.32
5d(10.00) rc: 2.32
5f( 0.00) rc: 2.32
For Au, standard SIESTA heuristics set lmxkb to 3
 (one more than the basis l, including polarization orbitals).
Use PS.lmax or PS.KBprojectors blocks to override.
Au: nkbl increased for l=1 due to the presence of a polarization orbital

<basis_specs>
===============================================================================
Au                   Z=  79    Mass=  196.97        Charge= 0.17977+309
Lmxo=2 Lmxkb= 3    BasisType=split      Semic=F
L=0  Nsemic=0  Cnfigmx=6
          i=1  nzeta=1  polorb=1  (6s)
            splnorm:   0.15000    
               vcte:    0.0000    
               rinn:    0.0000    
               qcoe:    0.0000    
               qyuk:    0.0000    
               qwid:   0.10000E-01
                rcs:    0.0000    
            lambdas:    1.0000    
L=1  Nsemic=0  Cnfigmx=6
L=2  Nsemic=0  Cnfigmx=5
          i=1  nzeta=1  polorb=0  (5d)
            splnorm:   0.15000    
               vcte:    0.0000    
               rinn:    0.0000    
               qcoe:    0.0000    
               qyuk:    0.0000    
               qwid:   0.10000E-01
                rcs:    0.0000    
            lambdas:    1.0000    
-------------------------------------------------------------------------------
L=0  Nkbl=1  erefs: 0.17977+309
L=1  Nkbl=2  erefs: 0.17977+309 0.17977+309
L=2  Nkbl=1  erefs: 0.17977+309
L=3  Nkbl=1  erefs: 0.17977+309
===============================================================================
</basis_specs>

atom: Called for Au                    (Z =  79)

read_vps: Pseudopotential generation method:
read_vps: ATM3      Troullier-Martins                       
Valence charge for ps generation:   11.00000

xc_check: Exchange-correlation functional:
xc_check: Ceperley-Alder
V l=0 = -2*Zval/r beyond r=  3.7361
V l=1 = -2*Zval/r beyond r=  3.7361
V l=2 = -2*Zval/r beyond r=  3.7361
V l=3 = -2*Zval/r beyond r=  3.7361
All V_l potentials equal beyond r=  2.2946
This should be close to max(r_c) in ps generation
All pots = -2*Zval/r beyond r=  3.7361
Using large-core scheme for Vlocal

atom: Estimated core radius    3.73611

atom: Including non-local core corrections could be a good idea
atom: Maximum radius for 4*pi*r*r*local-pseudopot. charge    4.07775
atom: Maximum radius for r*vlocal+2*Zval:    3.78310
GHOST: No ghost state for L =  0
KBgen: More than one KB projector for l=  1
KBgen: ghost states analysis will be not performed
GHOST: No ghost state for L =  2
GHOST: No ghost state for L =  3

KBgen: Kleinman-Bylander projectors: 
   l= 0   rc=  2.382235   el= -0.445645   Ekb=  4.511922   kbcos=  0.274440
   l= 1   rc=  2.382235   el= -0.065316   Ekb=  2.560647   kbcos=  0.223707
   l= 1   rc=  2.382235   el=  0.001421   Ekb=  2.131832   kbcos=  0.034244
   l= 2   rc=  2.382235   el= -0.526293   Ekb= -5.024070   kbcos= -0.676934
   l= 3   rc=  2.382235   el=  0.003438   Ekb= -2.070042   kbcos= -0.013117

KBgen: Total number of  Kleinman-Bylander projectors:   19
atom: -------------------------------------------------------------------------

atom: SANKEY-TYPE ORBITALS:

SPLIT: Orbitals with angular momentum L= 0

SPLIT: Basis orbitals for state 6s

SPLIT: PAO cut-off radius determined from an
SPLIT: energy shift=  0.005000 Ry

   izeta = 1
                 lambda =    1.000000
                     rc =    7.246712
                 energy =   -0.441368
                kinetic =    0.367640
    potential(screened) =   -0.809008
       potential(ionic) =   -8.408267

SPLIT: Orbitals with angular momentum L= 2

SPLIT: Basis orbitals for state 5d

SPLIT: PAO cut-off radius determined from an
SPLIT: energy shift=  0.005000 Ry

   izeta = 1
                 lambda =    1.000000
                     rc =    5.106662
                 energy =   -0.521343
                kinetic =    4.852314
    potential(screened) =   -5.373657
       potential(ionic) =  -16.114240

POLgen: Perturbative polarization orbital with L=  1

POLgen: Polarization orbital for state 6s

   izeta = 1
                     rc =    7.246712
                 energy =   -0.107868
                kinetic =    0.647525
    potential(screened) =   -0.755394
       potential(ionic) =   -7.869443
atom: Total number of Sankey-type orbitals:  9

atm_pop: Valence configuration (for local Pseudopot. screening):
 6s( 1.00)                                                            
 6p( 0.00)                                                            
 5d(10.00)                                                            
Vna: chval, zval:   11.00000  11.00000

Vna:  Cut-off radius for the neutral-atom potential:   7.246712

atom: _________________________________________________________________________

prinput: Basis input ----------------------------------------------------------

PAO.BasisType split     

%block ChemicalSpeciesLabel
    1   79 Au                      # Species index, atomic number, species label
%endblock ChemicalSpeciesLabel

%block PAO.Basis                 # Define Basis set
Au                    2                    # Species label, number of l-shells
 n=6   0   1 P   1                   # n, l, Nzeta, Polarization, NzetaPol
   7.247   
   1.000   
 n=5   2   1                         # n, l, Nzeta 
   5.107   
   1.000   
%endblock PAO.Basis

prinput: ----------------------------------------------------------------------

Dumping basis to NetCDF file Au.ion.nc
coor:   Atomic-coordinates input format  =     Cartesian coordinates
coor:                                          (in units of alat)

siesta: WARNING: XV file not found

siesta: Atomic coordinates (Bohr) and species
siesta:      0.00000   0.00000   0.00000  1        1
siesta:      5.52388   0.00000   0.00000  1        2
siesta:      2.76194   1.59461   4.51023  1        3
siesta:      8.28582   1.59461   4.51023  1        4
siesta:      2.76194  -1.59461   9.02046  1        5
siesta:      8.28582  -1.59461   9.02046  1        6
siesta:      0.00000   0.00000  13.53069  1        7
siesta:      5.52388   0.00000  13.53069  1        8
siesta:      2.76194   1.59461  18.04092  1        9
siesta:      8.28582   1.59461  18.04092  1       10
siesta:      2.76194   1.59461  36.08183  1       11
siesta:      8.28582   1.59461  36.08183  1       12
siesta:      2.76194  -1.59461  40.59206  1       13
siesta:      8.28582  -1.59461  40.59206  1       14
siesta:      0.00000   0.00000  45.10229  1       15
siesta:      5.52388   0.00000  45.10229  1       16
siesta:      2.76194   1.59461  49.61252  1       17
siesta:      8.28582   1.59461  49.61252  1       18
siesta:      2.76194  -1.59461  54.12275  1       19
siesta:      8.28582  -1.59461  54.12275  1       20

siesta: System type = bulk      

initatomlists: Number of atoms, orbitals, and projectors:     20   180   380

coxmol: Writing XMOL coordinates into file au_111_capacitor.xyz                                                

siesta: ******************** Simulation parameters ****************************
siesta:
siesta: The following are some of the parameters of the simulation.
siesta: A complete list of the parameters used, including default values,
siesta: can be found in file out.fdf
siesta:
redata: Spin configuration                          = none
redata: Number of spin components                   = 1
redata: Time-Reversal Symmetry                      = T
redata: Spin spiral                                 = F
redata: Long output                                 =   F
redata: Number of Atomic Species                    =        1
redata: Charge density info will appear in .RHO file
redata: Write Mulliken Pop.                         = Atomic and Orbital charges
redata: Matel table size (NRTAB)                    =     1024
redata: Mesh Cutoff                                 =   350.0000 Ry
redata: Net charge of the system                    =     0.0000 |e|
redata: Min. number of SCF Iter                     =        0
redata: Max. number of SCF Iter                     =      300
redata: SCF convergence failure will abort job
redata: SCF mix quantity                            = Hamiltonian
redata: Mix DM or H after convergence               =   F
redata: Recompute H after scf cycle                 =   F
redata: Mix DM in first SCF step                    =   T
redata: Write Pulay info on disk                    =   F
redata: New DM Occupancy tolerance                  = 0.000000000001
redata: No kicks to SCF
redata: DM Mixing Weight for Kicks                  =     0.5000
redata: Require Harris convergence for SCF          =   F
redata: Harris energy tolerance for SCF             =     0.000100 eV
redata: Require DM convergence for SCF              =   T
redata: DM tolerance for SCF                        =     0.000100
redata: Require EDM convergence for SCF             =   F
redata: EDM tolerance for SCF                       =     0.001000 eV
redata: Require H convergence for SCF               =   T
redata: Hamiltonian tolerance for SCF               =     0.001000 eV
redata: Require (free) Energy convergence for SCF   =   F
redata: (free) Energy tolerance for SCF             =     0.000100 eV
redata: Using Saved Data (generic)                  =   F
redata: Use continuation files for DM               =   T
redata: Neglect nonoverlap interactions             =   F
redata: Method of Calculation                       = Transiesta
redata: Fix the spin of the system                  =   F
redata: Dynamics option                             = Single-point calculation
mix.SCF: Pulay mixing                            = Pulay
mix.SCF:    Variant                              = stable
mix.SCF:    History steps                        = 5
mix.SCF:    Linear mixing weight                 =     0.030000
mix.SCF:    Mixing weight                        =     0.030000
mix.SCF:    SVD condition                        = 0.1000E-07
redata: Save all siesta data in one NC              =   F
redata: ***********************************************************************

%block SCF.Mixers
  Pulay
%endblock SCF.Mixers

%block SCF.Mixer.Pulay
  # Mixing method
  method pulay
  variant stable

  # Mixing options
  weight 0.0300
  weight.linear 0.0300
  history 5
%endblock SCF.Mixer.Pulay

DM_history_depth set to one: no extrapolation allowed by default for geometry relaxation
Size of DM history Fstack: 1
Total number of electrons:   220.000000
Total ionic charge:   220.000000

* ProcessorY, Blocksize:    2  23


* Orbital distribution balance (max,min):    23    19

k-point displ. along   1 input, could be:     0.00    0.50
k-point displ. along   2 input, could be:     0.00    0.50
 Kpoints in:          480 . Kpoints trimmed:          480

siesta: k-grid: Number of k-points =   480
siesta: k-grid: Cutoff (effective) =    11.692 Ang
siesta: k-grid: Supercell and displacements
siesta: k-grid:    4   0   0      0.000
siesta: k-grid:    0   8   0      0.000
siesta: k-grid:    0   0  30      0.500

diag: Algorithm                                     = Expert
diag: Parallel over k                               =   F
diag: Use parallel 2D distribution                  =   T
diag: Parallel block-size                           = 23
diag: Parallel distribution                         =     2 x     4
diag: Used triangular part                          = Lower
diag: Absolute tolerance                            =  0.100E-15
diag: Orthogonalization factor                      =  0.100E-05
diag: Memory factor                                 =  1.0000

superc: Internal auxiliary supercell:     5 x     9 x     3  =     135
superc: Number of atoms, orbitals, and projectors:   2700  24300  51300

k-point displ. along   1 input, could be:     0.00    0.50
k-point displ. along   2 input, could be:     0.00    0.50
 Kpoints in:           20 . Kpoints trimmed:           19

transiesta: k-grid: Number of Green function k-points =    19
transiesta: k-grid: Supercell and displacements
transiesta: k-grid:    4   0   0      0.000
transiesta: k-grid:    0   8   0      0.000
transiesta: k-grid:    0   0   1      0.000

ts: **************************************************************
ts: Voltage                                         =    1.0000 Volts
ts: Save H and S matrices                           =    T
ts: Electronic temperature                          =   99.999269 K
ts: Transport along unit-cell vector                =    A3
ts: Transport along Cartesian vector                =    Z
ts: Fixing Hartree potential at cell boundary       =    -C
ts: Fix Hartree potential fraction                  =    1.0000
ts: Hartree potential offset                        =    0.000000 eV
ts: Solution method                                 =    BTD
ts: BTD pivoting method                             =    atom+Left
ts: BTD creation algorithm                          =    speed
ts: BTD spectral function algorithm                 =    propagation
ts: SCF DM tolerance                                = 0.100E-03
ts: SCF Hamiltonian tolerance                       =    0.001000 eV
ts: SCF converge charge                             =    T
ts: SCF charge tolerance                            = 0.220E+00
ts: Initialize DM by                                =    diagon
ts: Hartree potential ramp across entire cell
ts: Non-equilibrium contour weight method           =    orb-orb
ts: Non-equilibrium contour weight k-method         =    Correlated k-points
ts: Will not correct charge fluctuations
ts: TS.SCF mixing options same as SCF
ts:           >> Electrodes << 
ts: >> Left
ts:   Electrode cell pivoting: E1, E2, E3           = A1, A2, A3
ts:   GF file                                       = au_111_capacitor.TSGFLeft
ts:   Reuse existing GF-file                        =    F
ts:   Electrode TSHS file                           = ./elec_au_111_abc.TSHS
ts:   # atoms used in electrode                     =    3
ts:   Electrode Bloch repeating [E1 x E2 x E3]      = 2 x 1 x 1
ts:   Position in geometry                          = 1 -- 6
ts:   Semi-infinite direction for electrode         = negative wrt. E3
ts:   Chemical shift                                =    0.499999 eV
ts:   Electronic temperature                        =   99.999269 K
ts:   Gamma-only electrode                          =    F
ts:   Bulk H, S in electrode region                 =    T
ts:   Initial DM for electrodes                     = diagon
ts:   Pre-expansion to reduce computation           = H, S, GS
ts:   Cross-terms are not updated
ts:   Manual delta-Ef shift                         =    0.000000 eV
ts:   Hamiltonian E-C bias fractional shift         =    0.0000
ts:   Electrode self-energy imaginary Eta           =  0.1000E-02 eV
ts:   Electrode self-energy accuracy                =  0.1000E-12 eV
ts:   Electrode inter-layer distance (semi-inf)     =    2.3867 Ang
ts: >> Right
ts:   Electrode cell pivoting: E1, E2, E3           = A1, A2, A3
ts:   GF file                                       = au_111_capacitor.TSGFRight
ts:   Reuse existing GF-file                        =    F
ts:   Electrode TSHS file                           = ./elec_au_111_abc.TSHS
ts:   # atoms used in electrode                     =    3
ts:   Electrode Bloch repeating [E1 x E2 x E3]      = 2 x 1 x 1
ts:   Position in geometry                          = 15 -- 20
ts:   Semi-infinite direction for electrode         = positive wrt. E3
ts:   Chemical shift                                =   -0.499999 eV
ts:   Electronic temperature                        =   99.999269 K
ts:   Gamma-only electrode                          =    F
ts:   Bulk H, S in electrode region                 =    T
ts:   Initial DM for electrodes                     = diagon
ts:   Pre-expansion to reduce computation           = H, S, GS
ts:   Cross-terms are not updated
ts:   Manual delta-Ef shift                         =    0.000000 eV
ts:   Hamiltonian E-C bias fractional shift         =    0.0000
ts:   Electrode self-energy imaginary Eta           =  0.1000E-02 eV
ts:   Electrode self-energy accuracy                =  0.1000E-12 eV
ts:   Electrode inter-layer distance (semi-inf)     =    2.3867 Ang
ts:  ----------------- Contour ----------------- 
ts:            >> Residual contour << 
ts: Pole chemical potential                         =    0.5000 eV
ts:    Chemical potential temperature               =   99.9993 K
ts:    Number of poles                              =   47
ts:    Top energy point                             =    2.5448 eV
ts: Pole chemical potential                         =   -0.5000 eV
ts:    Chemical potential temperature               =   99.9993 K
ts:    Number of poles                              =   47
ts:    Top energy point                             =    2.5448 eV
ts:          >> Equilibrium contour << 
ts: Contour name                                    =    TS.Contour.c-Left
ts:   circle contour E_min                          =  -39.5000 eV
ts:   circle contour E_max                          =    0.4138 eV
ts:   circle contour points                         =   30
ts:   circle contour method                         =    Gauss-Legendre
ts: Contour name                                    =    TS.Contour.t-Left
ts:   tail contour E_min                            =    0.4138 eV
ts:   tail contour E_max                            =     Infinity
ts:   tail contour points                           =   10
ts:   tail contour method                           =    Gauss-Fermi (0kT)
ts: Contour name                                    =    TS.Contour.c-Right
ts:   circle contour E_min                          =  -40.5000 eV
ts:   circle contour E_max                          =   -0.5862 eV
ts:   circle contour points                         =   30
ts:   circle contour method                         =    Gauss-Legendre
ts: Contour name                                    =    TS.Contour.t-Right
ts:   tail contour E_min                            =   -0.5862 eV
ts:   tail contour E_max                            =     Infinity
ts:   tail contour points                           =   10
ts:   tail contour method                           =    Gauss-Fermi (0kT)
ts:         >> non-Equilibrium contour << 
ts: Device Green function imaginary Eta             = 0.1000E-03 eV
ts: Fermi-function cut-off                          =  5.000     kT
ts: Contour name                                    =    TS.Contour.nEq.neq
ts:   line contour E_min                            =   -0.5431 eV
ts:   line contour E_max                            =    0.5431 eV
ts:   line contour points                           =  109
ts:   line contour method                           =    Mid-rule
ts: **************************************************************

************************ Begin: TS CHECKS AND WARNINGS ************************
Without loosing performance you can increase the equilibrium integration precision.
You can add 2 more energy points in the equilibrium contours, for FREE!
This is 1 more energy points per chemical potential.
Without loosing performance you can increase the non-equilibrium integration precision.
You can add 3 more energy points in the non-equilibrium contours, for FREE!
Electrode Left will not update cross-terms or local region.
Electrode Left is using Bloch unfolding using the repeat scheme! Please use the tiling scheme (it is orders of magnitudes faster!).
Electrode Right will not update cross-terms or local region.
Electrode Right is using Bloch unfolding using the repeat scheme! Please use the tiling scheme (it is orders of magnitudes faster!).
************************ End: TS CHECKS AND WARNINGS **************************

                  ****************************************
                   TRANSIESTA REPORTED IMPORTANT WARNINGS
                  ****************************************

>>> TranSiesta block information for FDF-file START <<<

%block TS.ChemPots
  Left
  Right
%endblock TS.ChemPots

%block TS.ChemPot.Left
  mu  V/2
  contour.eq
   begin
    c-Left
    t-Left
   end
%endblock TS.ChemPot.Left
%block TS.ChemPot.Right
  mu  - V/2
  contour.eq
   begin
    c-Right
    t-Right
   end
%endblock TS.ChemPot.Right
%block TS.Contour.c-Left
  part circle
     from -40.00000 eV + V/2 to -10. kT + V/2
      points 30
        method g-legendre
%endblock TS.Contour.c-Left
%block TS.Contour.t-Left
  part tail
     from prev to + inf
      points 10
        method g-fermi
%endblock TS.Contour.t-Left
%block TS.Contour.c-Right
  part circle
     from -40.00000 eV - V/2 to -10. kT - V/2
      points 30
        method g-legendre
%endblock TS.Contour.c-Right
%block TS.Contour.t-Right
  part tail
     from prev to + inf
      points 10
        method g-fermi
%endblock TS.Contour.t-Right
%block TS.Contours.nEq
    neq
%endblock TS.Contours.nEq

%block TS.Contour.nEq.neq
  part line
     from - |V|/2 - 5 kT to |V|/2 + 5 kT
      delta 0.01 eV
        method mid-rule
%endblock TS.Contour.nEq.neq

>>> TranSiesta block information for FDF-file END <<<


transiesta: Regions of atoms:
   ## (6): Elec.Left
     [ 1 -- 6 ]
   ## (6): Elec.Right
     [ 15 -- 20 ]
   -- (8): Device
     [ 7 -- 14 ]

  <sparsity:./elec_au_111_abc.TSHS
    nrows_g=27 nrows=27 sparsity=44.2757 nnzs=32277, refcount: 3>
  <sparsity:(TM [--,--, 0] of: ./elec_au_111_abc.TSHS)
    nrows_g=27 nrows=27 sparsity=25.1152 nnzs=18309, refcount: 3>
  <sparsity:(TM [--,--,-1] of: ./elec_au_111_abc.TSHS)
    nrows_g=27 nrows=27 sparsity=9.4486 nnzs=6888, refcount: 3>
 Left principal cell is extending out with 96 elements:
    Atom 1 connects with atom 3
    Orbital 8 connects with orbital 26
    Hamiltonian value: |H(8,7046)|@R=-2 =  0.102E-18 eV
    Overlap          :  S(8,7046)|@R=-2 =   0.00    

Calculating all surface Green functions for: Left
 Fermi level shift in electrode (chemical potential) :        0.50000  eV
 Atoms available    / used atoms   :      3 /      3
 Orbitals available / used orbitals:     27 /     27
 Total self-energy calculations: 10754
 Bloch expansion k-points in A_1 direction [b_1]: 2
 Saving surface Green functions in: au_111_capacitor.TSGFLeft
 Estimated file size:    240.938 MB
 Lopez Sancho, Lopez Sancho & Rubio recursive surface self-energy calculation...
 Lopez Sancho, Lopez Sancho & Rubio: Mean/std iterations:     7.2553 /     4.5228
 Lopez Sancho, Lopez Sancho & Rubio: Min/Max iterations :          3 /         16
Done creating 'au_111_capacitor.TSGFLeft'.

  <sparsity:./elec_au_111_abc.TSHS
    nrows_g=27 nrows=27 sparsity=44.2757 nnzs=32277, refcount: 3>
  <sparsity:(TM [--,--, 0] of: ./elec_au_111_abc.TSHS)
    nrows_g=27 nrows=27 sparsity=25.1152 nnzs=18309, refcount: 3>
  <sparsity:(TM [--,--, 1] of: ./elec_au_111_abc.TSHS)
    nrows_g=27 nrows=27 sparsity=9.4486 nnzs=6888, refcount: 3>
 Right principal cell is extending out with 96 elements:
    Atom 3 connects with atom 1
    Orbital 26 connects with orbital 8
    Hamiltonian value: |H(26,6353)|@R=2 =  0.102E-18 eV
    Overlap          :  S(26,6353)|@R=2 =   0.00    

Calculating all surface Green functions for: Right
 Fermi level shift in electrode (chemical potential) :       -0.50000  eV
 Atoms available    / used atoms   :      3 /      3
 Orbitals available / used orbitals:     27 /     27
 Total self-energy calculations: 10754
 Bloch expansion k-points in A_1 direction [b_1]: 2
 Saving surface Green functions in: au_111_capacitor.TSGFRight
 Estimated file size:    240.938 MB
 Lopez Sancho, Lopez Sancho & Rubio recursive surface self-energy calculation...
 Lopez Sancho, Lopez Sancho & Rubio: Mean/std iterations:     8.3666 /     5.0341
 Lopez Sancho, Lopez Sancho & Rubio: Min/Max iterations :          3 /         16
Done creating 'au_111_capacitor.TSGFRight'.


                     ====================================
                        Single-point calculation
                     ====================================

superc: Internal auxiliary supercell:     5 x     9 x     3  =     135
superc: Number of atoms, orbitals, and projectors:   2700  24300  51300

outcell: Unit cell vectors (Ang):
        5.846220    0.000000    0.000000
        1.461555    2.531488    0.000000
        0.000000    0.000000   31.027221

outcell: Cell vector modules (Ang)   :    5.846220    2.923110   31.027221
outcell: Cell angles (23,13,12) (deg):     90.0000     90.0000     60.0000
outcell: Cell volume (Ang**3)        :    459.1915
<dSpData1D:S at geom step 0
  <sparsity:sparsity for geom step 0
    nrows_g=180 nrows=23 sparsity=.8156 nnzs=26425, refcount: 7>
  <dData1D:(new from dSpData1D) n=26425, refcount: 1>
refcount: 1>
new_DM -- step:     1
Initializing Density Matrix...

Attempting to read DM, EDM from TSDE file... Failed...
Attempting to read DM from file... Failed...
DM filled with atomic data:
<dSpData2D:DM initialized from atoms
  <sparsity:sparsity for geom step 0
    nrows_g=180 nrows=23 sparsity=.8156 nnzs=26425, refcount: 8>
  <dData2D:DM n=26425 m=1, refcount: 1>
refcount: 1>

transiesta: Initialization run using siesta

ts: We highly recommend you to perform 0-bias calculations before *any* bias calculations

No. of atoms with KB's overlaping orbs in proc 0. Max # of overlaps:      71     237
New grid distribution:   1
           1       1:   30    1:    8    1:   45
           2       1:   30    1:    8   46:   90
           3       1:   30    1:    8   91:  135
           4       1:   30    1:    8  136:  180
           5       1:   30    9:   15    1:   45
           6       1:   30    9:   15   46:   90
           7       1:   30    9:   15   91:  135
           8       1:   30    9:   15  136:  180

InitMesh: MESH =    60 x    30 x   360 =      648000
InitMesh: (bp) =    30 x    15 x   180 =       81000
InitMesh: Mesh cutoff (required, used) =   350.000   372.067 Ry
ExtMesh (bp) on 0 =   122 x   100 x   137 =     1671400
New grid distribution:   2
           1       1:   30    1:   15  149:  164
           2       1:   30    1:   15   49:  115
           3       1:   30    1:   15    1:   16
           4       1:   30    1:   15  133:  148
           5       1:   30    1:   15   17:   32
           6       1:   30    1:   15   33:   48
           7       1:   30    1:   15  116:  132
           8       1:   30    1:   15  165:  180
New grid distribution:   3
           1       1:   30    1:   15    1:   21
           2       1:   30    1:   15   64:   96
           3       1:   30    1:   15   97:  117
           4       1:   30    1:   15  139:  159
           5       1:   30    1:   15   22:   42
           6       1:   30    1:   15   43:   63
           7       1:   30    1:   15  118:  138
           8       1:   30    1:   15  160:  180
Setting up quadratic distribution...
ExtMesh (bp) on 0 =   122 x   107 x   108 =     1409832
PhiOnMesh: Number of (b)points on node 0 =                 7200
PhiOnMesh: nlist on node 0 =               588170

ts-voltage: Ramp  0.500 eV to -0.500 eV placed in cell
ts-Vha: -0.11478E-05 eV

stepf: Fermi-Dirac step function
ts-Vha: -0.13711E+02 eV

siesta: Program's energy decomposition (eV):
siesta: Ebs     =       333.973138
siesta: Eions   =     23424.498348
siesta: Ena     =      1167.255813
siesta: Ekin    =     12439.927907
siesta: Enl     =     -5723.867650
siesta: Eso     =         0.000000
siesta: Edftu   =         0.000000
siesta: DEna    =       234.548391
siesta: DUscf   =        22.940258
siesta: DUext   =         0.000000
siesta: Exc     =     -2796.765649
siesta: eta*DQ  =         0.000000
siesta: Emadel  =         0.000000
siesta: Emeta   =         0.000000
siesta: Emolmec =         0.000000
siesta: Ekinion =         0.000000
siesta: Eharris =    -18050.220390
siesta: Etot    =    -18080.459278
siesta: FreeEng =    -18080.462726

        iscf     Eharris(eV)        E_KS(eV)     FreeEng(eV)     dDmax    Ef(eV) dHmax(eV)
   scf:    1   -18050.220390   -18080.459278   -18080.462726  0.237449 -2.582722 21.456003
timer: Routine,Calls,Time,% = IterSCF        1      20.610  59.66
ts-Vha:  0.12683E+02 eV
   scf:    2   -18063.307891   -18080.429789   -18080.433450  0.050530 -2.341927 23.510217
ts-Vha:  0.12863E+00 eV
   scf:    3   -18087.667377   -18085.890338   -18085.894144  0.030586 -2.513317  5.147232
ts-Vha: -0.38609E+01 eV
   scf:    4   -18087.097789   -18086.737503   -18086.741211  0.013192 -2.561513  4.368196
ts-Vha:  0.59339E+01 eV
   scf:    5   -18085.029706   -18086.966005   -18086.971264  0.035074 -2.471073 12.851117
ts-Vha: -0.56132E+02 eV
   scf:    6   -17840.140565   -18012.508482   -18012.512143  0.140404 -3.407958 91.214889
ts-Vha: -0.15952E+02 eV
   scf:    7   -18112.613667   -18083.415981   -18083.423262  0.093192 -2.695105 23.913882
ts-Vha: -0.28962E+02 eV
   scf:    8   -18053.941499   -18070.988111   -18070.991918  0.053407 -2.965484 42.874154
ts-Vha: -0.28074E+02 eV
   scf:    9   -18073.399097   -18072.255965   -18072.259050  0.013491 -3.034459 41.108161
ts-Vha: -0.71877E+01 eV
   scf:   10   -18096.154316   -18089.478515   -18089.486021  0.079775 -2.843399 10.089318
ts-Vha: -0.11360E+02 eV
   scf:   11   -18085.568428   -18087.739566   -18087.747397  0.011926 -2.896980 16.911587
ts-Vha: -0.23979E+01 eV
   scf:   12   -18091.073689   -18090.411966   -18090.419509  0.027375 -2.786966  2.370009
ts-Vha: -0.19747E+01 eV
   scf:   13   -18090.460080   -18090.438573   -18090.446120  0.002312 -2.783745  1.744841
ts-Vha: -0.11594E+01 eV
   scf:   14   -18090.449680   -18090.453930   -18090.461727  0.006255 -2.760244  0.379737
ts-Vha: -0.11010E+01 eV
   scf:   15   -18090.454733   -18090.454438   -18090.462265  0.001146 -2.758415  0.253434
ts-Vha: -0.73029E+00 eV
   scf:   16   -18090.507263   -18090.488138   -18090.495954  0.006152 -2.773547  0.563136
ts-Vha: -0.99764E+00 eV
   scf:   17   -18090.495104   -18090.493559   -18090.501395  0.004477 -2.787516  0.048131
ts-Vha: -0.97755E+00 eV
   scf:   18   -18090.494053   -18090.493824   -18090.501654  0.000414 -2.788562  0.069862
ts-Vha: -0.98298E+00 eV
   scf:   19   -18090.493901   -18090.493865   -18090.501693  0.000181 -2.789394  0.061899
ts-Vha: -0.10076E+01 eV
   scf:   20   -18090.495715   -18090.494899   -18090.502660  0.002460 -2.792679  0.025208
ts-Vha: -0.10049E+01 eV
   scf:   21   -18090.495255   -18090.495091   -18090.502820  0.000844 -2.793002  0.026652
ts-Vha: -0.10079E+01 eV
   scf:   22   -18090.495247   -18090.495174   -18090.502879  0.000524 -2.793531  0.013684
ts-Vha: -0.10103E+01 eV
   scf:   23   -18090.495257   -18090.495217   -18090.502902  0.000297 -2.794175  0.008703
ts-Vha: -0.10113E+01 eV
   scf:   24   -18090.495239   -18090.495222   -18090.502899  0.000110 -2.794486  0.006225
ts-Vha: -0.10135E+01 eV
   scf:   25   -18090.495337   -18090.495284   -18090.502928  0.000450 -2.795126  0.007510
ts-Vha: -0.10101E+01 eV
   scf:   26   -18090.495294   -18090.495290   -18090.502938  0.000113 -2.794504  0.005682
ts-Vha: -0.10119E+01 eV
   scf:   27   -18090.495339   -18090.495316   -18090.502943  0.000257 -2.794934  0.003796
ts-Vha: -0.10115E+01 eV
   scf:   28   -18090.495337   -18090.495327   -18090.502946  0.000138 -2.794806  0.001959
ts-Vha: -0.10121E+01 eV
   scf:   29   -18090.495340   -18090.495333   -18090.502946  0.000078 -2.794896  0.002369
ts-Vha: -0.10123E+01 eV
   scf:   30   -18090.495330   -18090.495332   -18090.502947  0.000027 -2.794798  0.002660
ts-Vha: -0.10122E+01 eV
   scf:   31   -18090.495327   -18090.495330   -18090.502948  0.000030 -2.794681  0.001900
ts-Vha: -0.10121E+01 eV
   scf:   32   -18090.495327   -18090.495328   -18090.502948  0.000021 -2.794598  0.001742
ts-Vha: -0.10119E+01 eV
   scf:   33   -18090.495326   -18090.495327   -18090.502949  0.000032 -2.794466  0.000679

SCF Convergence by DM+H criterion
max |DM_out - DM_in|         :     0.0000324557
max |H_out - H_in|      (eV) :     0.0006793271
SCF cycle converged after 33 iterations

                     ***************************
                     *  WELCOME TO TRANSIESTA  *
                     ***************************

ts-Vha: -0.10119E+01 eV

transiesta: created H and S sparsity pattern:
  <sparsity:(M of: G ((UC of: T T T sparsity for geom step 0)))
    nrows_g=180 nrows=180 sparsity=.2632 nnzs=8528, refcount: 1>

transiesta: created local update sparsity pattern:
  <sparsity:(M of: T T T sparsity for geom step 0)
    nrows_g=180 nrows=23 sparsity=.0000 nnzs=0, refcount: 1>

transiesta: created update sparsity pattern:
  <sparsity:G ((UC of: (M of: T T T sparsity for geom step 0)))
    nrows_g=180 nrows=180 sparsity=.0800 nnzs=2592, refcount: 1>

transiesta: Determining an optimal tri-matrix using: atom+Left
transiesta: Established a near-optimal partition for the tri-diagonal matrix.
BTD partitions (4): 
  [ [45] * 4 ]
transiesta: Matrix elements in % of full matrix:  62.50000 %

transiesta: mem of electrodes (static):                     0.27MB
transiesta: mem of global update arrays (static):           0.42MB
transiesta: mem of master node sparse arrays:               0.00MB
transiesta: mem of tri-diagonal matrices:                   0.62MB
transiesta: Total memory usage:                             1.84MB

transiesta: Charge distribution, target =    220.00000
Total charge                  [Q]  :    220.00000
Device                        [D]  :     87.39904
Left                          [E1] :     65.40213
Left                 / device [C1] :      0.61231
Right                         [E2] :     65.40213
Right                / device [C2] :      0.61231
Other                         [O]  :      0.57208
Excess charge                [dQ]  : -1.13687E-13

ts-err-D: ij(   64,    64), M = 0.78088   , ew = -.39225E-1, em = 0.39225E-1. avg_em = -.23725E-04
ts-err-E: ij(   64,    64), M = -3.3561   , ew = -.61472E-2, em = 0.61472E-2. avg_em = -.26245E-05
ts-w-q:               qP1       qP2
ts-w-q:            44.213    43.091
ts-q:         D        E1        C1        E2        C2        dQ
ts-q:    87.304    65.402     0.612    65.402     0.612 -.951E-01
ts-Vha:  0.25741E+01 eV

siesta: Program's energy decomposition (eV):
siesta: Ebs     =     -2281.979470
siesta: Eions   =     23424.498348
siesta: Ena     =      1167.255813
siesta: Ekin    =     12728.056622
siesta: Enl     =     -5899.748042
siesta: Eso     =         0.000000
siesta: Edftu   =         0.000000
siesta: DEna    =       156.704684
siesta: DUscf   =        18.377853
siesta: DUext   =         0.000000
siesta: Exc     =     -2825.326416
siesta: eta*DQ  =         0.000000
siesta: Emadel  =         0.000000
siesta: Emeta   =         0.000000
siesta: Emolmec =         0.000000
siesta: Ekinion =         0.000000
siesta: Eharris =    -18056.788864
siesta: Etot    =    -18079.177835
siesta: FreeEng =    -18079.177835
ts: E-dN      =         0.560950
ts: Band Stru =      -911.168326
ts: Kinetic   =      5085.315060
ts: Ion-elec  =    -92970.284281
ts: Eharris   =    -22164.468282
ts: Etot      =    -22186.857253
ts: FreeEng   =    -22186.857253

        iscf     Eharris(eV)        E_KS(eV)     FreeEng(eV)     dDmax    Ef(eV) dHmax(eV)
ts-scf:    1   -22164.468282   -22186.857253   -22186.857253  0.087745 -2.794466 24.525898
timer: Routine,Calls,Time,% = TS             1       5.854   0.89
ts-err-D: ij(  109,   109), M = 0.81088   , ew = 0.65898E-3, em = 0.65898E-3. avg_em = -.18930E-06
ts-err-E: ij(   64,    64), M = -2.9921   , ew = -.13332E-3, em = 0.13332E-3. avg_em = -.36056E-08
ts-w-q:               qP1       qP2
ts-w-q:            43.284    44.289
ts-q:         D        E1        C1        E2        C2        dQ
ts-q:    87.574    65.402     0.612    65.402     0.612 0.175E+00
ts-Vha: -0.55564E+01 eV
ts-scf:    2   -22152.174488   -22190.379645   -22190.379645  0.176225 -2.794466 25.666903
ts-err-D: ij(   98,    98), M = 0.27924E-1, ew = 0.33738E-2, em = 0.33738E-2. avg_em = 0.37310E-05
ts-err-E: ij(   98,  8027), M = 0.25349E-2, ew = -.13573E-2, em = -.13573E-2. avg_em = 0.15910E-05
ts-w-q:               qP1       qP2
ts-w-q:            43.681    43.640
ts-q:         D        E1        C1        E2        C2        dQ
ts-q:    87.321    65.402     0.612    65.402     0.612 -.779E-01
ts-Vha: -0.30302E+00 eV
ts-scf:    3   -22196.597656   -22198.135366   -22198.135366  0.091900 -2.794466  1.628532
ts-err-D: ij(   89,    89), M = 0.33203E-1, ew = -.23905E-2, em = 0.23905E-2. avg_em = 0.53739E-05
ts-err-E: ij(   89,    89), M = -.92900E-1, ew = -.11734E-2, em = 0.11734E-2. avg_em = 0.26058E-05
ts-w-q:               qP1       qP2
ts-w-q:            43.719    43.668
ts-q:         D        E1        C1        E2        C2        dQ
ts-q:    87.386    65.402     0.612    65.402     0.612 -.126E-01
ts-Vha: -0.83032E+00 eV
ts-scf:    4   -22198.612454   -22198.406845   -22198.406845  0.004832 -2.794466  0.808175
ts-err-D: ij(  107,   107), M = 0.28565E-1, ew = 0.28375E-2, em = 0.28375E-2. avg_em = 0.34546E-05
ts-err-E: ij(   98,  8027), M = 0.24867E-2, ew = -.12308E-2, em = -.12308E-2. avg_em = 0.16058E-05
ts-w-q:               qP1       qP2
ts-w-q:            43.698    43.693
ts-q:         D        E1        C1        E2        C2        dQ
ts-q:    87.391    65.402     0.612    65.402     0.612 -.789E-02
ts-Vha: -0.98316E+00 eV
ts-scf:    5   -22198.489417   -22198.468146   -22198.468146  0.005357 -2.794466  0.848562
ts-err-D: ij(   98,    98), M = 0.29091E-1, ew = 0.32056E-2, em = 0.32056E-2. avg_em = 0.33657E-05
ts-err-E: ij(   98,  8027), M = 0.24579E-2, ew = -.14343E-2, em = -.14343E-2. avg_em = 0.15883E-05
ts-w-q:               qP1       qP2
ts-w-q:            43.725    43.672
ts-q:         D        E1        C1        E2        C2        dQ
ts-q:    87.397    65.402     0.612    65.402     0.612 -.215E-02
ts-Vha: -0.91996E+00 eV
ts-scf:    6   -22198.426347   -22198.460996   -22198.460996  0.007098 -2.794466  0.485747
ts-err-D: ij(   98,    98), M = 0.29160E-1, ew = 0.33997E-2, em = 0.33997E-2. avg_em = 0.26558E-05
ts-err-E: ij(   98,  8027), M = 0.24509E-2, ew = -.15340E-2, em = -.15340E-2. avg_em = 0.12077E-05
ts-w-q:               qP1       qP2
ts-w-q:            43.711    43.681
ts-q:         D        E1        C1        E2        C2        dQ
ts-q:    87.393    65.402     0.612    65.402     0.612 -.630E-02
ts-Vha: -0.93646E+00 eV
ts-scf:    7   -22198.465208   -22198.466714   -22198.466714  0.001373 -2.794466  0.120453
ts-err-D: ij(   98,    98), M = 0.29283E-1, ew = 0.32280E-2, em = 0.32280E-2. avg_em = 0.22101E-05
ts-err-E: ij(  107,  1178), M = 0.24642E-2, ew = -.14767E-2, em = -.14767E-2. avg_em = 0.10220E-05
ts-w-q:               qP1       qP2
ts-w-q:            43.708    43.682
ts-q:         D        E1        C1        E2        C2        dQ
ts-q:    87.390    65.402     0.612    65.402     0.612 -.916E-02
ts-Vha: -0.90764E+00 eV
ts-scf:    8   -22198.441532   -22198.453769   -22198.453769  0.001753 -2.794466  0.112306
ts-err-D: ij(   98,    98), M = 0.29343E-1, ew = 0.33839E-2, em = 0.33839E-2. avg_em = 0.22077E-05
ts-err-E: ij(   98,  8027), M = 0.24587E-2, ew = -.15572E-2, em = -.15572E-2. avg_em = 0.99953E-06
ts-w-q:               qP1       qP2
ts-w-q:            43.708    43.686
ts-q:         D        E1        C1        E2        C2        dQ
ts-q:    87.394    65.402     0.612    65.402     0.612 -.501E-02
ts-Vha: -0.95008E+00 eV
ts-scf:    9   -22198.485279   -22198.472260   -22198.472260  0.000580 -2.794466  0.020230
ts-err-D: ij(   98,    98), M = 0.29344E-1, ew = 0.33839E-2, em = 0.33839E-2. avg_em = 0.22287E-05
ts-err-E: ij(   98,  8027), M = 0.24588E-2, ew = -.15572E-2, em = -.15572E-2. avg_em = 0.10100E-05
ts-w-q:               qP1       qP2
ts-w-q:            43.708    43.686
ts-q:         D        E1        C1        E2        C2        dQ
ts-q:    87.394    65.402     0.612    65.402     0.612 -.551E-02
ts-Vha: -0.94494E+00 eV
ts-scf:   10   -22198.467648   -22198.469635   -22198.469635  0.000066 -2.794466  0.012565
ts-err-D: ij(   98,    98), M = 0.29385E-1, ew = 0.33514E-2, em = 0.33514E-2. avg_em = 0.23473E-05
ts-err-E: ij(   98,  8027), M = 0.24527E-2, ew = -.15473E-2, em = -.15473E-2. avg_em = 0.10740E-05
ts-w-q:               qP1       qP2
ts-w-q:            43.708    43.686
ts-q:         D        E1        C1        E2        C2        dQ
ts-q:    87.393    65.402     0.612    65.402     0.612 -.555E-02
ts-Vha: -0.94591E+00 eV
ts-scf:   11   -22198.465449   -22198.467539   -22198.467539  0.000464 -2.794466  0.008610
ts-err-D: ij(   98,    98), M = 0.29403E-1, ew = 0.33061E-2, em = 0.33061E-2. avg_em = 0.24184E-05
ts-err-E: ij(   98,  8027), M = 0.24485E-2, ew = -.15284E-2, em = -.15284E-2. avg_em = 0.11155E-05
ts-w-q:               qP1       qP2
ts-w-q:            43.708    43.685
ts-q:         D        E1        C1        E2        C2        dQ
ts-q:    87.394    65.402     0.612    65.402     0.612 -.551E-02
ts-Vha: -0.94609E+00 eV
ts-scf:   12   -22198.465557   -22198.466546   -22198.466546  0.000266 -2.794466  0.006709
ts-err-D: ij(   98,    98), M = 0.29397E-1, ew = 0.33176E-2, em = 0.33176E-2. avg_em = 0.24396E-05
ts-err-E: ij(   98,  8027), M = 0.24475E-2, ew = -.15333E-2, em = -.15333E-2. avg_em = 0.11231E-05
ts-w-q:               qP1       qP2
ts-w-q:            43.708    43.686
ts-q:         D        E1        C1        E2        C2        dQ
ts-q:    87.394    65.402     0.612    65.402     0.612 -.527E-02
ts-Vha: -0.94600E+00 eV
ts-scf:   13   -22198.468143   -22198.467438   -22198.467438  0.000110 -2.794466  0.003892
ts-err-D: ij(   98,    98), M = 0.29406E-1, ew = 0.32801E-2, em = 0.32801E-2. avg_em = 0.24775E-05
ts-err-E: ij(   98,  8027), M = 0.24452E-2, ew = -.15171E-2, em = -.15171E-2. avg_em = 0.11471E-05
ts-w-q:               qP1       qP2
ts-w-q:            43.708    43.686
ts-q:         D        E1        C1        E2        C2        dQ
ts-q:    87.394    65.402     0.612    65.402     0.612 -.494E-02
ts-Vha: -0.94741E+00 eV
ts-scf:   14   -22198.468602   -22198.468164   -22198.468164  0.000153 -2.794466  0.003064
ts-err-D: ij(   98,    98), M = 0.29404E-1, ew = 0.32878E-2, em = 0.32878E-2. avg_em = 0.24597E-05
ts-err-E: ij(   98,  8027), M = 0.24462E-2, ew = -.15205E-2, em = -.15205E-2. avg_em = 0.11375E-05
ts-w-q:               qP1       qP2
ts-w-q:            43.708    43.686
ts-q:         D        E1        C1        E2        C2        dQ
ts-q:    87.394    65.402     0.612    65.402     0.612 -.499E-02
ts-Vha: -0.94719E+00 eV
ts-scf:   15   -22198.468259   -22198.468204   -22198.468204  0.000044 -2.794466  0.001705
ts-err-D: ij(   98,    98), M = 0.29405E-1, ew = 0.32811E-2, em = 0.32811E-2. avg_em = 0.24658E-05
ts-err-E: ij(   98,  8027), M = 0.24460E-2, ew = -.15176E-2, em = -.15176E-2. avg_em = 0.11414E-05
ts-w-q:               qP1       qP2
ts-w-q:            43.708    43.686
ts-q:         D        E1        C1        E2        C2        dQ
ts-q:    87.394    65.402     0.612    65.402     0.612 -.496E-02
ts-Vha: -0.94727E+00 eV
ts-scf:   16   -22198.468308   -22198.468271   -22198.468271  0.000026 -2.794466  0.001628
ts-err-D: ij(   98,    98), M = 0.29403E-1, ew = 0.32889E-2, em = 0.32889E-2. avg_em = 0.24719E-05
ts-err-E: ij(   98,  8027), M = 0.24462E-2, ew = -.15210E-2, em = -.15210E-2. avg_em = 0.11430E-05
ts-w-q:               qP1       qP2
ts-w-q:            43.708    43.686
ts-q:         D        E1        C1        E2        C2        dQ
ts-q:    87.394    65.402     0.612    65.402     0.612 -.496E-02
ts-Vha: -0.94727E+00 eV
ts-scf:   17   -22198.468442   -22198.468352   -22198.468352  0.000014 -2.794466  0.001205
ts-err-D: ij(   98,    98), M = 0.29401E-1, ew = 0.32962E-2, em = 0.32962E-2. avg_em = 0.24780E-05
ts-err-E: ij(   98,  8027), M = 0.24462E-2, ew = -.15241E-2, em = -.15241E-2. avg_em = 0.11448E-05
ts-w-q:               qP1       qP2
ts-w-q:            43.708    43.686
ts-q:         D        E1        C1        E2        C2        dQ
ts-q:    87.394    65.402     0.612    65.402     0.612 -.503E-02
ts-Vha: -0.94699E+00 eV
ts-scf:   18   -22198.468004   -22198.468140   -22198.468140  0.000016 -2.794466  0.000859

SCF Convergence by DM+H+dQ criterion
max |DM_out - DM_in|         :     0.0000160839
max |H_out - H_in|      (eV) :     0.0008592445
     Q(TS) - Q(dev)          :    -0.0050283500
SCF cycle converged after 18 iterations

Using DM_out to compute the final energy and forces
No. of atoms with KB's overlaping orbs in proc 0. Max # of overlaps:      71     237
ts-Vha: -0.94699E+00 eV

siesta: E_KS(eV) =           -18090.2391

siesta: E_KS - E_eggbox =    -18090.2391

siesta: Atomic forces (eV/Ang):
----------------------------------------
   Tot    0.000000   -0.000000    0.336271
----------------------------------------
   Max    0.245265
   Res    0.063394    sqrt( Sum f_i^2 / 3N )
----------------------------------------
   Max    0.245265    constrained

ts: Atomic forces (eV/Ang):
----------------------------------------
   Tot   -0.000000   -0.000000    0.103496
----------------------------------------
   Max    0.245265
   Res    0.067652    sqrt( Sum f_i^2 / 3N )
----------------------------------------
   Max    0.245265    constrained

Stress tensor Voigt[x,y,z,yz,xz,xy] (kbar):       38.72       38.72       27.48        0.00       -0.00        0.00
(Free)E + p*V (eV/cell)   -18100.2620
Target enthalpy (eV/cell)   -18090.2391

mulliken: Atomic and Orbital Populations:

Species: Au                  
Atom  Qatom  Qorb
               6s      5dxy    5dyz    5dz2    5dxz    5dx2-y2 6Ppy    6Ppz    
               6Ppx    
   1 11.002   1.007   1.907   1.918   1.893   1.918   1.907   0.151   0.149
              0.151
   2 11.002   1.007   1.907   1.918   1.893   1.918   1.907   0.151   0.149
              0.151
   3 10.996   0.998   1.906   1.923   1.889   1.923   1.906   0.150   0.152
              0.150
   4 10.996   0.998   1.906   1.923   1.889   1.923   1.906   0.150   0.152
              0.150
   5 10.999   1.005   1.909   1.919   1.890   1.919   1.909   0.151   0.146
              0.151
   6 10.999   1.005   1.909   1.919   1.890   1.919   1.909   0.151   0.146
              0.151
   7 10.976   0.989   1.908   1.927   1.888   1.927   1.908   0.146   0.136
              0.146
   8 10.976   0.989   1.908   1.927   1.888   1.927   1.908   0.146   0.136
              0.146
   9 11.032   1.062   1.891   1.938   1.926   1.938   1.891   0.138   0.112
              0.138
  10 11.032   1.062   1.891   1.938   1.926   1.938   1.891   0.138   0.112
              0.138
  11 11.021   1.058   1.891   1.938   1.926   1.938   1.891   0.137   0.106
              0.137
  12 11.021   1.058   1.891   1.938   1.926   1.938   1.891   0.137   0.106
              0.137
  13 10.974   0.988   1.908   1.928   1.888   1.928   1.908   0.146   0.136
              0.146
  14 10.974   0.988   1.908   1.928   1.888   1.928   1.908   0.146   0.136
              0.146
  15 10.999   1.005   1.909   1.919   1.890   1.919   1.909   0.151   0.146
              0.151
  16 10.999   1.005   1.909   1.919   1.890   1.919   1.909   0.151   0.146
              0.151
  17 10.996   0.998   1.906   1.923   1.889   1.923   1.906   0.150   0.152
              0.150
  18 10.996   0.998   1.906   1.923   1.889   1.923   1.906   0.150   0.152
              0.150
  19 11.002   1.007   1.907   1.918   1.893   1.918   1.907   0.151   0.149
              0.151
  20 11.002   1.007   1.907   1.918   1.893   1.918   1.907   0.151   0.149
              0.151

mulliken: Qtot =      219.995

transiesta: Charge distribution, target =    220.00000
Total charge                  [Q]  :    219.99497
Device                        [D]  :     87.39401
Left                          [E1] :     65.40213
Left                 / device [C1] :      0.61231
Right                         [E2] :     65.40213
Right                / device [C2] :      0.61231
Other                         [O]  :      0.57208
Excess charge                [dQ]  : -5.02835E-03


coxmol: Writing XMOL coordinates into file au_111_capacitor.xyz                                                

siesta: Program's energy decomposition (eV):
siesta: Ebs     =     -1525.407594
siesta: Eions   =     23424.498348
siesta: Ena     =      1167.255813
siesta: Ekin    =     12734.677666
siesta: Enl     =     -5902.787053
siesta: Eso     =         0.000000
siesta: Edftu   =         0.000000
siesta: DEna    =       154.486695
siesta: DUscf   =         7.566618
siesta: DUext   =         0.000000
siesta: Exc     =     -2826.940521
siesta: eta*DQ  =         0.000000
siesta: Emadel  =         0.000000
siesta: Emeta   =         0.000000
siesta: Emolmec =         0.000000
siesta: Ekinion =         0.000000
siesta: Eharris =    -18090.238995
siesta: Etot    =    -18090.239130
siesta: FreeEng =    -18090.239130
ts: E-dN      =         0.011358
ts: Band Stru =      -593.430219
ts: Kinetic   =      5091.936104
ts: Ion-elec  =    -93754.943991
ts: Eharris   =    -22198.468004
ts: Etot      =    -22198.468140
ts: FreeEng   =    -22198.468140

siesta: Final energy (eV):
siesta:  Band Struct. =   -1525.407594
siesta:       Kinetic =   12734.677666
siesta:       Hartree =   43365.595433
siesta:       Edftu   =       0.000000
siesta:       Eso     =       0.000000
siesta:    Ext. field =       0.000000
siesta:   Exch.-corr. =   -2826.940521
siesta:  Ion-electron =  -97289.445185
siesta:       Ion-ion =   25925.873477
siesta:       Ekinion =       0.000000
siesta:         Total =  -18090.239130
ts:         E-dN  =       0.011358
ts:     Band Stru =    -593.430219
ts:       Kinetic =    5091.936104
ts:      Ion-elec =  -93754.943991
ts:         Total =  -22198.468140
siesta:         Fermi =      -2.794466

siesta: Atomic forces (eV/Ang):
siesta:      1   -0.000000   -0.000000    0.149147
siesta:      2    0.000000   -0.000000    0.149147
siesta:      3    0.000000    0.000000    0.007441
siesta:      4   -0.000000    0.000000    0.007441
siesta:      5    0.000000    0.000000    0.014617
siesta:      6   -0.000000    0.000000    0.014617
siesta:      7    0.000000   -0.000000   -0.187090
siesta:      8   -0.000000   -0.000000   -0.187090
siesta:      9    0.000000    0.000000   -0.024816
siesta:     10   -0.000000    0.000000   -0.024816
siesta:     11   -0.000000   -0.000000    0.018389
siesta:     12    0.000000   -0.000000    0.018389
siesta:     13   -0.000000   -0.000000    0.245265
siesta:     14   -0.000000   -0.000000    0.245265
siesta:     15   -0.000000    0.000000   -0.020980
siesta:     16    0.000000    0.000000   -0.020980
siesta:     17    0.000000   -0.000000    0.004580
siesta:     18   -0.000000   -0.000000    0.004580
siesta:     19   -0.000000    0.000000   -0.038417
siesta:     20    0.000000    0.000000   -0.038417
siesta: ----------------------------------------
siesta:    Tot    0.000000   -0.000000    0.336271

ts: Atomic forces (eV/Ang):
ts:      1    0.000000    0.000000    0.000000
ts:      2    0.000000    0.000000    0.000000
ts:      3    0.000000    0.000000    0.000000
ts:      4    0.000000    0.000000    0.000000
ts:      5    0.000000    0.000000    0.000000
ts:      6    0.000000    0.000000    0.000000
ts:      7    0.000000   -0.000000   -0.187090
ts:      8   -0.000000   -0.000000   -0.187090
ts:      9    0.000000    0.000000   -0.024816
ts:     10   -0.000000    0.000000   -0.024816
ts:     11   -0.000000   -0.000000    0.018389
ts:     12    0.000000   -0.000000    0.018389
ts:     13   -0.000000   -0.000000    0.245265
ts:     14   -0.000000   -0.000000    0.245265
ts:     15    0.000000    0.000000    0.000000
ts:     16    0.000000    0.000000    0.000000
ts:     17    0.000000    0.000000    0.000000
ts:     18    0.000000    0.000000    0.000000
ts:     19    0.000000    0.000000    0.000000
ts:     20    0.000000    0.000000    0.000000
ts: ----------------------------------------
ts:    Tot   -0.000000   -0.000000    0.103496

siesta: Stress tensor (static) (eV/Ang**3):
siesta:     0.024165    0.000000   -0.000000
siesta:     0.000000    0.024165    0.000000
siesta:    -0.000000    0.000000    0.017152

siesta: Cell volume =        459.191485 Ang**3

siesta: Pressure (static):
siesta:                Solid            Molecule  Units
siesta:          -0.00023773         -0.00024155  Ry/Bohr**3
siesta:          -0.02182717         -0.02217853  eV/Ang**3
siesta:         -34.97136000        -35.53430104  kBar
(Free)E+ p_basis*V_orbitals  =      -18076.380658
(Free)Eharris+ p_basis*V_orbitals  =      -18076.380522
ts-Vha: -0.94699E+00 eV

dhscf: Vacuum level (max, mean) =    2.364924    2.183495 eV

cite: Please see "au_111_capacitor.bib" for an exhaustive BiBTeX file.
cite: Please clearly indicate Siesta version in published work: v4.1-b4-351
cite: This calculation has made use of the following articles
cite: which are encouraged to be cited in a published work.
        Primary SIESTA paper
          DOI: www.doi.org/10.1088/0953-8984/14/11/302
        Primary TranSiesta paper
          DOI: www.doi.org/10.1103/PhysRevB.65.165401
        TranSiesta N-electrode
          DOI: www.doi.org/10.1016/j.cpc.2016.09.022

>> End of run:  23-JAN-2021   1:27:08
Job completed
[1611361628.643615] [n-62-21-35:13534:0]          mpool.c:42   UCX  WARN  object 0x3ee4700 was not returned to mpool ucp_requests
[1611361628.644742] [n-62-21-35:13541:0]          mpool.c:42   UCX  WARN  object 0x4272700 was not returned to mpool ucp_requests
[1611361628.644715] [n-62-21-35:13544:0]          mpool.c:42   UCX  WARN  object 0x44d5700 was not returned to mpool ucp_requests
[1611361628.645881] [n-62-21-35:13537:0]          mpool.c:42   UCX  WARN  object 0x2b25540 was not returned to mpool ucp_requests
