Siesta Version  : v4.1-b4-351
Architecture    : x86_64-linux-n-62-26-19
Compiler version: GNU Fortran (GCC) 9.3.0
Compiler flags  : mpifort -m64 -fPIC -O3 -march=native -ftree-vectorize -fexpensive-optimizatioons -funroll-loops -fprefetch-loop-arrays -fno-second-underscore  -flto
PP flags        : -I/dtu/sw/dcc/SL73/2020-aug/generic/build-tools/1.0/include -I/dtu/sw/dcc/SL773/2020-aug/generic/gcc/9.3.0/include -I/dtu/sw/dcc/SL73/2020-aug/generic/gcc/9.3.0/include -I/dtu/sw/dcc/SL73/2020-aug/XeonE5-2660v3/gnu/9.3.0/zlib/1.2.11/include -I/dtu/sw/dcc/SL73/2020-aug/generic/numactl/2.0.12/include -I/dtu/sw/dcc/SL73/2020-aug/XeonE5-2660v3/gnu/9.3.0/libxml2/2.9.10/include -I/dtu/sw/dcc/SL73/2020-aug/XeonE5-2660v3/gnu/9.3.0/hwloc/2.2.0/include -I/dtu/sw/dcc/SL73/2020-aug/XeonE5-2660v3/gnu/9.3.0/knem/1.1.4/include -I/dtu/sw/dcc/SL73/2020-aug/XeonE5-2660v3/gnu/9.3.0/ucx/1.8.1/include -I/dtu/sw/dcc/SL73/2020-aug/XeonE5-2660v3/gnu/9.3.0/openmpi/4.0.4/include -I/dtu/sw/dcc/SL73/2020-aug/XeonE5-2660v3/gnu/9.3.0/szip/2.1.1/include -I/dtu/sw/dcc/SL73/2020-aug/XeonE5-2660v3/gnu/9.3.0/hdf5/1.12.0/include -I/dtu/sw/dcc/SL73/2020-aug/XeonE5-2660v3/gnu/9.3.0/pnetcdf/1.12.1/include -I/dtu/sw/dcc/SL73/2020-aug/generic/gen-zlib/1.2.11/include -I/dtu/sw/dcc/SL73/2020-aug/generic/openssl/1.1.1/include -I/dtu/sw/dcc/SL73/2020-aug/generic/libssh2/1.8.2/include -I/dtu/sw/dcc/SL73/2020-aug/generic/curl/7.65.1/include -I/dtu/sw/dcc/SL73/2020-aug/XeonE5-2660v3/gnu/9.3.0/netcdf/4.7.4/include -I/dtu/sw/dcc/SL73/2020-aug/XeonE5-2660v3/gnu/9.3.0/flook/0.8.1/include -I/dtu/sw/dcc/SL73/2020-aug/XeonE5-2660v3/gnu/9.3.0/fftw/3.3.8/include -I/dtu/sw/dcc/SL73/2020-aug/XeonE5-2660v3/gnu/9.3.0/parmetis/4.0.3/include -I/dtu/sw/dcc/SL73/2020-aug/XeonE5-2660v3/gnu/9.3.0/scalapack/2.1.0/include -I/dtu/sw/dcc/SL73/2020-aug/XeonE5-2660v3/gnu/9.3.0/lapack/3.9.0/include -I/dtu/sw/dcc/SL73/2020-aug/XeonE5-2660v3/gnu/9.3.0/blis/0.7.0/include -I/dtu/sw/dcc/SL73/2020-aug/XeonE5-2660v3/gnu/9.3.0/scotch/6.0.9/include -I/dtu/sw/dcc/SL73/2020-aug/XeonE5-2660v3/gnu/9.3.0/mumps/5.3.3/include -I/dtu/sw/dcc/SL73/2020-aug/XeonE5-2660v3/gnu/9.3.0/elpa/2020.05.001/include -DSIESTA__ELPA -DMPI -DFC_HAVE_FLUSH -DFC_HAVE_ABORT -DCDF -DCDF4 -DSIESTA__FLOOK  -DNCDF -DNCDF_4 -DNCDF_PARALLEL -DTS_NOCHECKS -DSIESTA__METIS -DSIESTA__MUMPS -DSIESTA__MRRR -I/dtu/sw/dcc/SL73/2020-aug/XeonE5-2660v3/gnu/9.3.0/elpa/2020.05.001/include/elpa
Libraries       : libncdf.a libfdict.a -lnetcdff -lnetcdf -lpnetcdf -lhdf5_hl -lhdf5 -lz  -lzmuumps -lmumps_common -lesmumps -lscotch -lscotcherr -lpord -lparmetis -lmetis -lelpa -lscalapack -llapack -lblis  -L/dtu/sw/dcc/SL73/2020-aug/XeonE5-2660v3/gnu/9.3.0/flook/0.8.1/lib -Wl,-rpath=/dtu/sw/dcc/SL73/2020-aug/XeonE5-2660v3/gnu/9.3.0/flook/0.8.1/lib -lflookall -ldl  -flto -fuse-linker-plugin  -lmetis
PARALLEL version
NetCDF support
NetCDF-4 support
NetCDF-4 MPI-IO support
METIS ordering support
Lua support

* Running on 8 nodes in parallel
>> Start of run:  23-JAN-2021   1:13:35

                           ***********************       
                           *  WELCOME TO SIESTA  *       
                           ***********************       

reinit: Reading from elec_au_111_abc.fdf

reinit: -----------------------------------------------------------------------
reinit: System Name: elec_au_111_abc
reinit: -----------------------------------------------------------------------
reinit: System Label: elec_au_111_abc
reinit: -----------------------------------------------------------------------

initatom: Reading input for the pseudopotentials and atomic orbitals ----------
Species number:   1 Atomic number:   79 Label: Au

Ground state valence configuration:   6s01  5d10
Reading pseudopotential information in formatted form from Au.psf

Pseudopotential generated from a relativistic atomic calculation

Valence configuration for pseudopotential generation:
6s( 1.00) rc: 2.32
6p( 0.00) rc: 2.32
5d(10.00) rc: 2.32
5f( 0.00) rc: 2.32
For Au, standard SIESTA heuristics set lmxkb to 3
 (one more than the basis l, including polarization orbitals).
Use PS.lmax or PS.KBprojectors blocks to override.
Au: nkbl increased for l=1 due to the presence of a polarization orbital

<basis_specs>
===============================================================================
Au                   Z=  79    Mass=  196.97        Charge= 0.17977+309
Lmxo=2 Lmxkb= 3    BasisType=split      Semic=F
L=0  Nsemic=0  Cnfigmx=6
          i=1  nzeta=1  polorb=1  (6s)
            splnorm:   0.15000    
               vcte:    0.0000    
               rinn:    0.0000    
               qcoe:    0.0000    
               qyuk:    0.0000    
               qwid:   0.10000E-01
                rcs:    0.0000    
            lambdas:    1.0000    
L=1  Nsemic=0  Cnfigmx=6
L=2  Nsemic=0  Cnfigmx=5
          i=1  nzeta=1  polorb=0  (5d)
            splnorm:   0.15000    
               vcte:    0.0000    
               rinn:    0.0000    
               qcoe:    0.0000    
               qyuk:    0.0000    
               qwid:   0.10000E-01
                rcs:    0.0000    
            lambdas:    1.0000    
-------------------------------------------------------------------------------
L=0  Nkbl=1  erefs: 0.17977+309
L=1  Nkbl=2  erefs: 0.17977+309 0.17977+309
L=2  Nkbl=1  erefs: 0.17977+309
L=3  Nkbl=1  erefs: 0.17977+309
===============================================================================
</basis_specs>

atom: Called for Au                    (Z =  79)

read_vps: Pseudopotential generation method:
read_vps: ATM3      Troullier-Martins                       
Valence charge for ps generation:   11.00000

xc_check: Exchange-correlation functional:
xc_check: Ceperley-Alder
V l=0 = -2*Zval/r beyond r=  3.7361
V l=1 = -2*Zval/r beyond r=  3.7361
V l=2 = -2*Zval/r beyond r=  3.7361
V l=3 = -2*Zval/r beyond r=  3.7361
All V_l potentials equal beyond r=  2.2946
This should be close to max(r_c) in ps generation
All pots = -2*Zval/r beyond r=  3.7361
Using large-core scheme for Vlocal

atom: Estimated core radius    3.73611

atom: Including non-local core corrections could be a good idea
atom: Maximum radius for 4*pi*r*r*local-pseudopot. charge    4.07775
atom: Maximum radius for r*vlocal+2*Zval:    3.78310
GHOST: No ghost state for L =  0
KBgen: More than one KB projector for l=  1
KBgen: ghost states analysis will be not performed
GHOST: No ghost state for L =  2
GHOST: No ghost state for L =  3

KBgen: Kleinman-Bylander projectors: 
   l= 0   rc=  2.382235   el= -0.445645   Ekb=  4.511922   kbcos=  0.274440
   l= 1   rc=  2.382235   el= -0.065316   Ekb=  2.560647   kbcos=  0.223707
   l= 1   rc=  2.382235   el=  0.001421   Ekb=  2.131832   kbcos=  0.034244
   l= 2   rc=  2.382235   el= -0.526293   Ekb= -5.024070   kbcos= -0.676934
   l= 3   rc=  2.382235   el=  0.003438   Ekb= -2.070042   kbcos= -0.013117

KBgen: Total number of  Kleinman-Bylander projectors:   19
atom: -------------------------------------------------------------------------

atom: SANKEY-TYPE ORBITALS:

SPLIT: Orbitals with angular momentum L= 0

SPLIT: Basis orbitals for state 6s

SPLIT: PAO cut-off radius determined from an
SPLIT: energy shift=  0.005000 Ry

   izeta = 1
                 lambda =    1.000000
                     rc =    7.246712
                 energy =   -0.441368
                kinetic =    0.367640
    potential(screened) =   -0.809008
       potential(ionic) =   -8.408267

SPLIT: Orbitals with angular momentum L= 2

SPLIT: Basis orbitals for state 5d

SPLIT: PAO cut-off radius determined from an
SPLIT: energy shift=  0.005000 Ry

   izeta = 1
                 lambda =    1.000000
                     rc =    5.106662
                 energy =   -0.521343
                kinetic =    4.852314
    potential(screened) =   -5.373657
       potential(ionic) =  -16.114240

POLgen: Perturbative polarization orbital with L=  1

POLgen: Polarization orbital for state 6s

   izeta = 1
                     rc =    7.246712
                 energy =   -0.107868
                kinetic =    0.647525
    potential(screened) =   -0.755394
       potential(ionic) =   -7.869443
atom: Total number of Sankey-type orbitals:  9

atm_pop: Valence configuration (for local Pseudopot. screening):
 6s( 1.00)                                                            
 6p( 0.00)                                                            
 5d(10.00)                                                            
Vna: chval, zval:   11.00000  11.00000

Vna:  Cut-off radius for the neutral-atom potential:   7.246712

atom: _________________________________________________________________________

prinput: Basis input ----------------------------------------------------------

PAO.BasisType split     

%block ChemicalSpeciesLabel
    1   79 Au                      # Species index, atomic number, species label
%endblock ChemicalSpeciesLabel

%block PAO.Basis                 # Define Basis set
Au                    2                    # Species label, number of l-shells
 n=6   0   1 P   1                   # n, l, Nzeta, Polarization, NzetaPol
   7.247   
   1.000   
 n=5   2   1                         # n, l, Nzeta 
   5.107   
   1.000   
%endblock PAO.Basis

prinput: ----------------------------------------------------------------------

Dumping basis to NetCDF file Au.ion.nc
coor:   Atomic-coordinates input format  =     Cartesian coordinates
coor:                                          (in units of alat)

siesta: WARNING: XV file not found

siesta: Atomic coordinates (Bohr) and species
siesta:      0.00000   0.00000   0.00000  1        1
siesta:      2.76194   1.59461   4.51023  1        2
siesta:      2.76194  -1.59461   9.02046  1        3

siesta: System type = bulk      

initatomlists: Number of atoms, orbitals, and projectors:      3    27    57

coxmol: Writing XMOL coordinates into file elec_au_111_abc.xyz                                                 

siesta: ******************** Simulation parameters ****************************
siesta:
siesta: The following are some of the parameters of the simulation.
siesta: A complete list of the parameters used, including default values,
siesta: can be found in file out.fdf
siesta:
redata: Spin configuration                          = none
redata: Number of spin components                   = 1
redata: Time-Reversal Symmetry                      = T
redata: Spin spiral                                 = F
redata: Long output                                 =   F
redata: Number of Atomic Species                    =        1
redata: Charge density info will appear in .RHO file
redata: Write Mulliken Pop.                         = Atomic and Orbital charges
redata: Matel table size (NRTAB)                    =     1024
redata: Mesh Cutoff                                 =   350.0000 Ry
redata: Net charge of the system                    =     0.0000 |e|
redata: Min. number of SCF Iter                     =        0
redata: Max. number of SCF Iter                     =      300
redata: SCF convergence failure will abort job
redata: SCF mix quantity                            = Hamiltonian
redata: Mix DM or H after convergence               =   F
redata: Recompute H after scf cycle                 =   F
redata: Mix DM in first SCF step                    =   T
redata: Write Pulay info on disk                    =   F
redata: New DM Occupancy tolerance                  = 0.000000000001
redata: No kicks to SCF
redata: DM Mixing Weight for Kicks                  =     0.5000
redata: Require Harris convergence for SCF          =   F
redata: Harris energy tolerance for SCF             =     0.000100 eV
redata: Require DM convergence for SCF              =   T
redata: DM tolerance for SCF                        =     0.000100
redata: Require EDM convergence for SCF             =   F
redata: EDM tolerance for SCF                       =     0.001000 eV
redata: Require H convergence for SCF               =   T
redata: Hamiltonian tolerance for SCF               =     0.001000 eV
redata: Require (free) Energy convergence for SCF   =   F
redata: (free) Energy tolerance for SCF             =     0.000100 eV
redata: Using Saved Data (generic)                  =   F
redata: Use continuation files for DM               =   T
redata: Neglect nonoverlap interactions             =   F
redata: Method of Calculation                       = Diagonalization
redata: Electronic Temperature                      =    99.9993 K
redata: Fix the spin of the system                  =   F
redata: Dynamics option                             = Single-point calculation
mix.SCF: Pulay mixing                            = Pulay
mix.SCF:    Variant                              = stable
mix.SCF:    History steps                        = 5
mix.SCF:    Linear mixing weight                 =     0.030000
mix.SCF:    Mixing weight                        =     0.030000
mix.SCF:    SVD condition                        = 0.1000E-07
redata: Save all siesta data in one NC              =   F
redata: ***********************************************************************

%block SCF.Mixers
  Pulay
%endblock SCF.Mixers

%block SCF.Mixer.Pulay
  # Mixing method
  method pulay
  variant stable

  # Mixing options
  weight 0.0300
  weight.linear 0.0300
  history 5
%endblock SCF.Mixer.Pulay

DM_history_depth set to one: no extrapolation allowed by default for geometry relaxation
Size of DM history Fstack: 1
Total number of electrons:    33.000000
Total ionic charge:    33.000000

* ProcessorY, Blocksize:    2   3


* Orbital distribution balance (max,min):     6     3

k-point displ. along   1 input, could be:     0.00    0.50
k-point displ. along   2 input, could be:     0.00    0.50
k-point displ. along   3 input, could be:     0.00    0.50
 Kpoints in:         1984 . Kpoints trimmed:         1960

siesta: k-grid: Number of k-points =  1960
siesta: k-grid: Cutoff (effective) =    11.692 Ang
siesta: k-grid: Supercell and displacements
siesta: k-grid:    8   0   0      0.000
siesta: k-grid:    0   8   0      0.000
siesta: k-grid:    0   0  60      0.000

diag: Algorithm                                     = Expert
diag: Parallel over k                               =   T
diag: Use parallel 2D distribution                  =   T
diag: Parallel block-size                           = 3
diag: Parallel distribution                         =     2 x     4
diag: Used triangular part                          = Lower
diag: Absolute tolerance                            =  0.100E-15
diag: Orthogonalization factor                      =  0.100E-05
diag: Memory factor                                 =  1.0000

superc: Internal auxiliary supercell:     9 x     9 x     5  =     405
superc: Number of atoms, orbitals, and projectors:   1215  10935  23085


ts: **************************************************************
ts: Save H and S matrices                           =    T
ts: Save DM and EDM matrices                        =    T
ts: Only save the overlap matrix S                  =    F
ts: **************************************************************

************************ Begin: TS CHECKS AND WARNINGS ************************
************************ End: TS CHECKS AND WARNINGS **************************


                     ====================================
                        Single-point calculation
                     ====================================

superc: Internal auxiliary supercell:     9 x     9 x     5  =     405
superc: Number of atoms, orbitals, and projectors:   1215  10935  23085

outcell: Unit cell vectors (Ang):
        2.923110    0.000000    0.000000
        1.461555    2.531488    0.000000
        0.000000    0.000000    7.160128

outcell: Cell vector modules (Ang)   :    2.923110    2.923110    7.160128
outcell: Cell angles (23,13,12) (deg):     90.0000     90.0000     60.0000
outcell: Cell volume (Ang**3)        :     52.9836
<dSpData1D:S at geom step 0
  <sparsity:sparsity for geom step 0
    nrows_g=27 nrows=6 sparsity=11.4047 nnzs=8314, refcount: 7>
  <dData1D:(new from dSpData1D) n=8314, refcount: 1>
refcount: 1>
new_DM -- step:     1
Initializing Density Matrix...

Attempting to read DM from file... Failed...
DM filled with atomic data:
<dSpData2D:DM initialized from atoms
  <sparsity:sparsity for geom step 0
    nrows_g=27 nrows=6 sparsity=11.4047 nnzs=8314, refcount: 8>
  <dData2D:DM n=8314 m=1, refcount: 1>
refcount: 1>
No. of atoms with KB's overlaping orbs in proc 0. Max # of overlaps:      70     237
New grid distribution:   1
           1       1:   15    1:    8    1:   12
           2       1:   15    1:    8   13:   23
           3       1:   15    1:    8   24:   34
           4       1:   15    1:    8   35:   45
           5       1:   15    9:   15    1:   12
           6       1:   15    9:   15   13:   23
           7       1:   15    9:   15   24:   34
           8       1:   15    9:   15   35:   45

InitMesh: MESH =    30 x    30 x    90 =       81000
InitMesh: (bp) =    15 x    15 x    45 =       10125
InitMesh: Mesh cutoff (required, used) =   350.000   388.144 Ry
ExtMesh (bp) on 0 =   107 x   100 x   112 =     1198400
New grid distribution:   2
           1       1:   15    1:    7    1:   12
           2       1:   15    1:    7   13:   23
           3       1:   15    1:    8   24:   34
           4       1:   15    1:    8   35:   45
           5       1:   15    8:   15    1:   12
           6       1:   15    8:   15   13:   23
           7       1:   15    9:   15   24:   34
           8       1:   15    9:   15   35:   45
New grid distribution:   3
           1       1:   15    1:    8    1:   12
           2       1:   15    9:   15    1:   12
           3       1:   15    1:    8   24:   34
           4       1:   15    9:   15   13:   23
           5       1:   15    1:    8   13:   23
           6       1:   15    1:    8   35:   45
           7       1:   15    9:   15   24:   34
           8       1:   15    9:   15   35:   45
Setting up quadratic distribution...
ExtMesh (bp) on 0 =   107 x    99 x   112 =     1186416
PhiOnMesh: Number of (b)points on node 0 =                 1260
PhiOnMesh: nlist on node 0 =               103684

stepf: Fermi-Dirac step function

siesta: Program's energy decomposition (eV):
siesta: Ebs     =      -264.425963
siesta: Eions   =      3513.674752
siesta: Ena     =       174.746452
siesta: Ekin    =      1869.975698
siesta: Enl     =      -859.924312
siesta: Eso     =         0.000000
siesta: Edftu   =         0.000000
siesta: DEna    =        33.957873
siesta: DUscf   =         2.396393
siesta: DUext   =         0.000000
siesta: Exc     =      -420.837167
siesta: eta*DQ  =         0.000000
siesta: Emadel  =         0.000000
siesta: Emeta   =         0.000000
siesta: Emolmec =         0.000000
siesta: Ekinion =         0.000000
siesta: Eharris =     -2710.429042
siesta: Etot    =     -2713.359817
siesta: FreeEng =     -2713.360251

        iscf     Eharris(eV)        E_KS(eV)     FreeEng(eV)     dDmax    Ef(eV) dHmax(eV)
   scf:    1    -2710.429042    -2713.359817    -2713.360251  0.217412 -2.471786  1.761168
timer: Routine,Calls,Time,% = IterSCF        1       3.538  70.85
   scf:    2    -2713.460601    -2713.410393    -2713.410802  0.003025 -2.515291  1.684261
   scf:    3    -2714.298939    -2713.934580    -2713.934907  0.058745 -3.395983  0.023541
   scf:    4    -2713.934292    -2713.934476    -2713.934804  0.001190 -3.414440  0.022088
   scf:    5    -2713.934691    -2713.934610    -2713.934938  0.001232 -3.407659  0.004265
   scf:    6    -2713.934606    -2713.934608    -2713.934936  0.000047 -3.407470  0.005185
   scf:    7    -2713.934615    -2713.934613    -2713.934941  0.000361 -3.409249  0.000070
   scf:    8    -2713.934613    -2713.934613    -2713.934941  0.000016 -3.409239  0.000031

SCF Convergence by DM+H criterion
max |DM_out - DM_in|         :     0.0000159354
max |H_out - H_in|      (eV) :     0.0000305794
SCF cycle converged after 8 iterations

Using DM_out to compute the final energy and forces
No. of atoms with KB's overlaping orbs in proc 0. Max # of overlaps:      70     237

siesta: E_KS(eV) =            -2713.9346

siesta: E_KS - E_eggbox =     -2713.9346

siesta: Atomic forces (eV/Ang):
----------------------------------------
   Tot    0.000000   -0.000000   -0.000000
----------------------------------------
   Max    0.000000
   Res    0.000000    sqrt( Sum f_i^2 / 3N )
----------------------------------------
   Max    0.000000    constrained

Stress tensor Voigt[x,y,z,yz,xz,xy] (kbar):       24.24       24.24       50.73        0.00        0.00       -0.00
(Free)E + p*V (eV/cell)    -2715.0285
Target enthalpy (eV/cell)    -2713.9349

mulliken: Atomic and Orbital Populations:

Species: Au                  
Atom  Qatom  Qorb
               6s      5dxy    5dyz    5dz2    5dxz    5dx2-y2 6Ppy    6Ppz    
               6Ppx    
   1 11.000   1.005   1.907   1.919   1.892   1.919   1.907   0.151   0.148
              0.151
   2 11.000   1.005   1.907   1.919   1.892   1.919   1.907   0.151   0.148
              0.151
   3 11.000   1.005   1.907   1.919   1.892   1.919   1.907   0.151   0.148
              0.151

mulliken: Qtot =       33.000

coxmol: Writing XMOL coordinates into file elec_au_111_abc.xyz                                                 

siesta: Eigenvalues (eV):
  ik is       eps
   1  1  -10.3397  -10.0996   -9.7922   -9.6340   -8.4631   -8.0572   -8.0232   -7.5563   -7.5017   -7.3294
          -5.9325   -5.8317   -5.7700   -5.6243   -5.4141   -5.2823   -3.2538   -2.1842    1.7760    5.8022
    6.0326    9.1819   10.3933   10.7666   17.0119   17.0616   19.2201
   2  1  -10.4368   -9.6373   -9.3946   -9.2452   -8.5945   -8.4881   -8.3880   -7.8633   -7.4845   -7.3760
          -6.8073   -6.7709   -5.9713   -5.9110   -5.7027   -5.2943   -3.2642   -2.8665    4.6658    7.0300
    8.7415    9.1429    9.6461   11.7316   14.3675   15.3168   21.6569
   3  1  -10.4368   -9.6373   -9.3946   -9.2452   -8.5945   -8.4881   -8.3880   -7.8633   -7.4845   -7.3760
          -6.8073   -6.7709   -5.9713   -5.9110   -5.7027   -5.2943   -3.2642   -2.8665    4.6658    7.0300
    8.7415    9.1429    9.6461   11.7316   14.3675   15.3168   21.6569
   4  1  -10.3397  -10.0996   -9.7922   -9.6340   -8.4631   -8.0572   -8.0232   -7.5563   -7.5017   -7.3294
          -5.9325   -5.8317   -5.7700   -5.6243   -5.4141   -5.2823   -3.2538   -2.1842    1.7760    5.8022
    6.0326    9.1819   10.3933   10.7666   17.0119   17.0616   19.2201
   5  1  -10.0317   -9.8108   -9.7258   -9.5749   -8.6295   -8.3408   -7.8605   -7.5448   -7.3195   -7.2185
          -6.1638   -5.8983   -5.7640   -5.5368   -5.2078   -3.6292   -1.3261   -0.3860   -0.3461    3.4861
    3.7420    7.5768    9.9838   11.8395   12.6778   14.4219   17.9146
   6  1   -9.7069   -9.3364   -9.3364   -9.0786   -8.5369   -8.5369   -7.9107   -7.9107   -7.1367   -6.9218
          -6.9218   -6.2804   -5.8741   -5.8741   -5.5327   -1.4987   -1.4987    0.9132    1.8245    2.8939
    2.8939    5.0392    7.3827    7.3827   12.3195   15.2873   15.2873
   7  1   -9.7069   -9.3364   -9.3364   -9.0786   -8.5369   -8.5369   -7.9107   -7.9107   -7.1367   -6.9218
          -6.9218   -6.2804   -5.8741   -5.8741   -5.5327   -1.4987   -1.4987    0.9132    1.8245    2.8939
    2.8939    5.0392    7.3827    7.3827   12.3195   15.2873   15.2873
   8  1  -10.0317   -9.8108   -9.7258   -9.5749   -8.6295   -8.3408   -7.8605   -7.5448   -7.3195   -7.2185
          -6.1638   -5.8983   -5.7640   -5.5368   -5.2078   -3.6292   -1.3261   -0.3860   -0.3461    3.4861
    3.7420    7.5768    9.9838   11.8395   12.6778   14.4219   17.9146
   9  1  -10.4368   -9.6373   -9.3946   -9.2452   -8.5945   -8.4881   -8.3880   -7.8633   -7.4845   -7.3760
          -6.8073   -6.7709   -5.9713   -5.9110   -5.7027   -5.2943   -3.2642   -2.8665    4.6658    7.0300
    8.7415    9.1429    9.6461   11.7316   14.3675   15.3168   21.6569
  10  1  -11.3358   -9.8422   -9.3926   -9.1427   -8.5060   -8.3948   -8.1506   -7.6895   -7.6062   -7.5948
          -7.1384   -6.7207   -6.6845   -6.5725   -6.2326   -5.4215   -4.4380   -3.7431    6.8367    7.3422
    8.2759   12.9498   13.2823   13.5920   19.1636   19.5469   22.1277
  11  1  -11.6538   -9.6480   -9.6480   -8.6642   -8.6642   -8.3964   -8.2611   -8.2611   -7.6787   -7.6056
          -6.9473   -6.9249   -6.9249   -6.2353   -6.1523   -6.1523   -4.2619   -4.2619    6.8868    6.8868
   11.4616   11.4616   16.5687   17.6644   17.6955   17.6955   23.4357
  12  1  -11.3358   -9.8422   -9.3926   -9.1427   -8.5060   -8.3948   -8.1506   -7.6895   -7.6062   -7.5948
          -7.1384   -6.7207   -6.6845   -6.5725   -6.2326   -5.4215   -4.4380   -3.7431    6.8367    7.3422
    8.2759   12.9498   13.2823   13.5920   19.1636   19.5469   22.1277
  13  1  -10.4368   -9.6373   -9.3946   -9.2452   -8.5945   -8.4881   -8.3880   -7.8633   -7.4845   -7.3760
          -6.8073   -6.7709   -5.9713   -5.9110   -5.7027   -5.2943   -3.2642   -2.8665    4.6658    7.0300
    8.7415    9.1429    9.6461   11.7316   14.3675   15.3168   21.6569
  14  1   -9.5466   -9.5466   -9.4012   -8.9355   -8.9355   -8.4998   -8.1534   -7.6659   -7.6659   -7.1376
          -6.5793   -6.5308   -6.5308   -5.4065   -5.4065   -3.7310   -0.9023   -0.9023    2.4449    2.4449
    7.3484    8.2708    8.2708    8.2766   11.7976   11.7976   19.1572
  15  1   -9.7069   -9.3364   -9.3364   -9.0786   -8.5369   -8.5369   -7.9107   -7.9107   -7.1367   -6.9218
          -6.9218   -6.2804   -5.8741   -5.8741   -5.5327   -1.4987   -1.4987    0.9132    1.8245    2.8939
    2.8939    5.0392    7.3827    7.3827   12.3195   15.2873   15.2873
  16  1   -9.5466   -9.5466   -9.4012   -8.9355   -8.9355   -8.4998   -8.1534   -7.6659   -7.6659   -7.1376
          -6.5793   -6.5308   -6.5308   -5.4065   -5.4065   -3.7310   -0.9023   -0.9023    2.4449    2.4449
    7.3484    8.2708    8.2708    8.2766   11.7976   11.7976   19.1572
  17  1  -10.4368   -9.6373   -9.3946   -9.2452   -8.5945   -8.4881   -8.3880   -7.8633   -7.4845   -7.3760
          -6.8073   -6.7709   -5.9713   -5.9110   -5.7027   -5.2943   -3.2642   -2.8665    4.6658    7.0300
    8.7415    9.1429    9.6461   11.7316   14.3675   15.3168   21.6569
  18  1  -11.6538   -9.6480   -9.6480   -8.6642   -8.6642   -8.3964   -8.2611   -8.2611   -7.6787   -7.6056
          -6.9473   -6.9249   -6.9249   -6.2353   -6.1523   -6.1523   -4.2619   -4.2619    6.8868    6.8868
   11.4616   11.4616   16.5687   17.6644   17.6955   17.6955   23.4357
  19  1  -12.4394  -10.3355  -10.2926   -8.1697   -8.0916   -8.0603   -8.0138   -7.8657   -7.8501   -7.7358
          -7.6178   -7.5451   -6.7100   -6.5307   -6.4002   -5.6360   -5.4244   -4.9250    6.0244    6.1287
   15.2115   17.0591   19.2283   20.3179   20.9109   22.3297   23.3357
  20  1  -12.4394  -10.3355  -10.2926   -8.1697   -8.0916   -8.0603   -8.0138   -7.8657   -7.8501   -7.7358
          -7.6178   -7.5451   -6.7100   -6.5307   -6.4002   -5.6360   -5.4244   -4.9250    6.0244    6.1287
   15.2115   17.0591   19.2283   20.3179   20.9109   22.3297   23.3357
  21  1  -11.6538   -9.6480   -9.6480   -8.6642   -8.6642   -8.3964   -8.2611   -8.2611   -7.6787   -7.6056
          -6.9473   -6.9249   -6.9249   -6.2353   -6.1523   -6.1523   -4.2619   -4.2619    6.8868    6.8868
   11.4616   11.4616   16.5687   17.6644   17.6955   17.6955   23.4357
  22  1  -10.4368   -9.6373   -9.3946   -9.2452   -8.5945   -8.4881   -8.3880   -7.8633   -7.4845   -7.3760
          -6.8073   -6.7709   -5.9713   -5.9110   -5.7027   -5.2943   -3.2642   -2.8665    4.6658    7.0300
    8.7415    9.1429    9.6461   11.7316   14.3675   15.3168   21.6569
  23  1  -10.0317   -9.8108   -9.7258   -9.5749   -8.6295   -8.3408   -7.8605   -7.5448   -7.3195   -7.2185
          -6.1638   -5.8983   -5.7640   -5.5368   -5.2078   -3.6292   -1.3261   -0.3860   -0.3461    3.4861
    3.7420    7.5768    9.9838   11.8395   12.6778   14.4219   17.9146
  24  1  -10.0317   -9.8108   -9.7258   -9.5749   -8.6295   -8.3408   -7.8605   -7.5448   -7.3195   -7.2185
          -6.1638   -5.8983   -5.7640   -5.5368   -5.2078   -3.6292   -1.3261   -0.3860   -0.3461    3.4861
    3.7420    7.5768    9.9838   11.8395   12.6778   14.4219   17.9146
  25  1  -10.3397  -10.0996   -9.7922   -9.6340   -8.4631   -8.0572   -8.0232   -7.5563   -7.5017   -7.3294
          -5.9325   -5.8317   -5.7700   -5.6243   -5.4141   -5.2823   -3.2538   -2.1842    1.7760    5.8022
    6.0326    9.1819   10.3933   10.7666   17.0119   17.0616   19.2201
  26  1  -11.3358   -9.8422   -9.3926   -9.1427   -8.5060   -8.3948   -8.1506   -7.6895   -7.6062   -7.5948
          -7.1384   -6.7207   -6.6845   -6.5725   -6.2326   -5.4215   -4.4380   -3.7431    6.8367    7.3422
    8.2759   12.9498   13.2823   13.5920   19.1636   19.5469   22.1277
  27  1  -12.4394  -10.3355  -10.2926   -8.1697   -8.0916   -8.0603   -8.0138   -7.8657   -7.8501   -7.7358
          -7.6178   -7.5451   -6.7100   -6.5307   -6.4002   -5.6360   -5.4244   -4.9250    6.0244    6.1287
   15.2115   17.0591   19.2283   20.3179   20.9109   22.3297   23.3357
  28  1  -12.8556  -10.7216  -10.7216   -8.0237   -8.0139   -8.0139   -7.8675   -7.8675   -7.8675   -7.8675
          -7.1669   -7.1669   -6.5632   -6.5632   -5.9787   -5.9787   -5.9787   -5.9787    5.6592    5.6592
   20.2480   20.2480   20.2480   20.2480   23.6060   23.6167   23.6167
  29  1  -10.2878   -9.9949   -9.9801   -9.9801   -8.3808   -8.3808   -7.5082   -7.5082   -7.3389   -7.3389
          -5.4509   -5.3595   -5.3595   -5.0995   -5.0926   -2.6295   -2.6295   -1.8126    1.0122    1.0122
    2.6923    9.2767    9.2796   14.9052   14.9052   16.0848   16.0848
  30  1  -10.0317   -9.8108   -9.7258   -9.5749   -8.6295   -8.3408   -7.8605   -7.5448   -7.3195   -7.2185
          -6.1638   -5.8983   -5.7640   -5.5368   -5.2078   -3.6292   -1.3261   -0.3860   -0.3461    3.4861
    3.7420    7.5768    9.9838   11.8395   12.6778   14.4219   17.9146
  31  1   -9.5466   -9.5466   -9.4012   -8.9355   -8.9355   -8.4998   -8.1534   -7.6659   -7.6659   -7.1376
          -6.5793   -6.5308   -6.5308   -5.4065   -5.4065   -3.7310   -0.9023   -0.9023    2.4449    2.4449
    7.3484    8.2708    8.2708    8.2766   11.7976   11.7976   19.1572
  32  1  -10.0317   -9.8108   -9.7258   -9.5749   -8.6295   -8.3408   -7.8605   -7.5448   -7.3195   -7.2185
          -6.1638   -5.8983   -5.7640   -5.5368   -5.2078   -3.6292   -1.3261   -0.3860   -0.3461    3.4861
    3.7420    7.5768    9.9838   11.8395   12.6778   14.4219   17.9146
  33  1  -10.0317   -9.8108   -9.7258   -9.5749   -8.6295   -8.3408   -7.8605   -7.5448   -7.3195   -7.2185
          -6.1638   -5.8983   -5.7640   -5.5368   -5.2078   -3.6292   -1.3261   -0.3860   -0.3461    3.4861
    3.7420    7.5768    9.9838   11.8395   12.6778   14.4219   17.9146
  34  1   -9.5466   -9.5466   -9.4012   -8.9355   -8.9355   -8.4998   -8.1534   -7.6659   -7.6659   -7.1376
          -6.5793   -6.5308   -6.5308   -5.4065   -5.4065   -3.7310   -0.9023   -0.9023    2.4449    2.4449
    7.3484    8.2708    8.2708    8.2766   11.7976   11.7976   19.1572
  35  1  -10.0317   -9.8108   -9.7258   -9.5749   -8.6295   -8.3408   -7.8605   -7.5448   -7.3195   -7.2185
          -6.1638   -5.8983   -5.7640   -5.5368   -5.2078   -3.6292   -1.3261   -0.3860   -0.3461    3.4861
    3.7420    7.5768    9.9838   11.8395   12.6778   14.4219   17.9146
  36  1  -10.2878   -9.9949   -9.9801   -9.9801   -8.3808   -8.3808   -7.5082   -7.5082   -7.3389   -7.3389
          -5.4509   -5.3595   -5.3595   -5.0995   -5.0926   -2.6295   -2.6295   -1.8126    1.0122    1.0122
    2.6923    9.2767    9.2796   14.9052   14.9052   16.0848   16.0848
  37  1  -10.0317   -9.8108   -9.7258   -9.5749   -8.6295   -8.3408   -7.8605   -7.5448   -7.3195   -7.2185
          -6.1638   -5.8983   -5.7640   -5.5368   -5.2078   -3.6292   -1.3261   -0.3860   -0.3461    3.4861
    3.7420    7.5768    9.9838   11.8395   12.6778   14.4219   17.9146
  38  1   -9.5466   -9.5466   -9.4012   -8.9355   -8.9355   -8.4998   -8.1534   -7.6659   -7.6659   -7.1376
          -6.5793   -6.5308   -6.5308   -5.4065   -5.4065   -3.7310   -0.9023   -0.9023    2.4449    2.4449
    7.3484    8.2708    8.2708    8.2766   11.7976   11.7976   19.1572
  39  1  -10.0317   -9.8108   -9.7258   -9.5749   -8.6295   -8.3408   -7.8605   -7.5448   -7.3195   -7.2185
          -6.1638   -5.8983   -5.7640   -5.5368   -5.2078   -3.6292   -1.3261   -0.3860   -0.3461    3.4861
    3.7420    7.5768    9.9838   11.8395   12.6778   14.4219   17.9146
  40  1  -10.2878   -9.9949   -9.9801   -9.9801   -8.3808   -8.3808   -7.5082   -7.5082   -7.3389   -7.3389
          -5.4509   -5.3595   -5.3595   -5.0995   -5.0926   -2.6295   -2.6295   -1.8126    1.0122    1.0122
    2.6923    9.2767    9.2796   14.9052   14.9052   16.0848   16.0848
  41  1  -10.3150  -10.0917   -9.7862   -9.6686   -8.4484   -8.1214   -8.0314   -7.5258   -7.4642   -7.3629
          -5.9618   -5.8343   -5.7806   -5.6197   -5.3994   -5.2698   -3.1022   -2.2865    1.7707    5.6058
    6.1666    9.0205   10.3911   11.0594   16.9013   17.1751   19.0847
  42  1  -10.4242   -9.6220   -9.3877   -9.2916   -8.5732   -8.5165   -8.3743   -7.8736   -7.4966   -7.3467
          -6.8314   -6.7762   -5.9803   -5.9098   -5.6787   -5.2914   -3.1472   -2.9619    4.6643    6.8644
    8.6077    9.4376    9.7898   11.5973   14.2150   15.4860   21.5990
  43  1  -10.4487   -9.6533   -9.3995   -9.1987   -8.6160   -8.4598   -8.4011   -7.8532   -7.4728   -7.4038
          -6.7850   -6.7642   -5.9684   -5.9103   -5.7227   -5.2976   -3.3788   -2.7703    4.6708    7.1818
    8.8506    8.8924    9.5028   11.8686   14.5203   15.1473   21.7046
  44  1  -10.3640  -10.1070   -9.7968   -9.6012   -8.4767   -8.0319   -7.9739   -7.5859   -7.5381   -7.2953
          -5.9042   -5.8286   -5.7597   -5.6290   -5.4296   -5.2966   -3.4035   -2.0823    1.7846    5.9000
    6.0007    9.3403   10.4004   10.4757   16.8472   17.2205   19.3478
  45  1  -10.0364   -9.8422   -9.7260   -9.5385   -8.6493   -8.3286   -7.7986   -7.5854   -7.3514   -7.1858
          -6.1518   -5.9016   -5.7707   -5.5386   -5.2140   -3.6389   -1.4331   -0.3863   -0.2237    3.5996
    3.6147    7.6086   10.0775   11.6058   12.8503   14.2329   18.0666
  46  1   -9.7063   -9.3562   -9.3157   -9.0783   -8.5417   -8.5329   -7.9409   -7.8815   -7.1383   -6.9412
          -6.9025   -6.2813   -5.8757   -5.8705   -5.5316   -1.4994   -1.4959    0.9115    1.8240    2.7580
    3.0314    5.0452    7.2188    7.5481   12.3140   15.1772   15.3868
  47  1   -9.7063   -9.3562   -9.3157   -9.0783   -8.5417   -8.5329   -7.9409   -7.8815   -7.1383   -6.9412
          -6.9025   -6.2813   -5.8757   -5.8705   -5.5316   -1.4994   -1.4959    0.9115    1.8240    2.7580
    3.0314    5.0452    7.2188    7.5481   12.3140   15.1772   15.3868
  48  1  -10.0258   -9.7791   -9.7247   -9.6115   -8.6093   -8.3528   -7.9232   -7.5043   -7.2849   -7.2505
          -6.1783   -5.8947   -5.7609   -5.5341   -5.2003   -3.6194   -1.2170   -0.4860   -0.3653    3.3753
    3.8708    7.5498    9.8833   12.0725   12.5055   14.6093   17.7544
  49  1  -10.4242   -9.6220   -9.3877   -9.2916   -8.5732   -8.5165   -8.3743   -7.8736   -7.4966   -7.3467
          -6.8314   -6.7762   -5.9803   -5.9098   -5.6787   -5.2914   -3.1472   -2.9619    4.6643    6.8644
    8.6077    9.4376    9.7898   11.5973   14.2150   15.4860   21.5990
  50  1  -11.3297   -9.8309   -9.4229   -9.1214   -8.5167   -8.4220   -8.1365   -7.6840   -7.6038   -7.5884
          -7.1466   -6.7304   -6.6964   -6.5967   -6.2234   -5.4049   -4.3154   -3.8217    6.5414    7.4599
    8.4718   13.0954   13.2715   13.4249   19.3158   19.4045   22.0911
  51  1  -11.6530   -9.6661   -9.6326   -8.7000   -8.6263   -8.3969   -8.2785   -8.2428   -7.6785   -7.6051
          -6.9470   -6.9361   -6.9137   -6.2353   -6.1938   -6.1116   -4.3438   -4.1778    6.5871    7.1901
   11.4421   11.4850   16.5516   17.5407   17.6797   17.8502   23.4308
  52  1  -11.3406   -9.8546   -9.3666   -9.1629   -8.4926   -8.3677   -8.1633   -7.6949   -7.6231   -7.5852
          -7.1313   -6.7112   -6.6721   -6.5463   -6.2421   -5.4393   -4.5583   -3.6634    7.1355    7.1799
    8.1321   12.8044   13.2974   13.7593   19.0099   19.6877   22.1541
  53  1  -10.4487   -9.6533   -9.3995   -9.1987   -8.6160   -8.4598   -8.4011   -7.8532   -7.4728   -7.4038
          -6.7850   -6.7642   -5.9684   -5.9103   -5.7227   -5.2976   -3.3788   -2.7703    4.6708    7.1818
    8.8506    8.8924    9.5028   11.8686   14.5203   15.1473   21.7046
  54  1   -9.5649   -9.5276   -9.4017   -8.9403   -8.9301   -8.4997   -8.1542   -7.6801   -7.6529   -7.1369
          -6.5777   -6.5492   -6.5150   -5.4070   -5.4043   -3.7308   -1.0061   -0.7977    2.4445    2.4491
    7.3242    8.0837    8.3021    8.4594   11.6255   11.9657   19.1511
  55  1   -9.7063   -9.3562   -9.3157   -9.0783   -8.5417   -8.5329   -7.9409   -7.8815   -7.1383   -6.9412
          -6.9025   -6.2813   -5.8757   -5.8705   -5.5316   -1.4994   -1.4959    0.9115    1.8240    2.7580
    3.0314    5.0452    7.2188    7.5481   12.3140   15.1772   15.3868
  56  1   -9.5649   -9.5276   -9.4017   -8.9403   -8.9301   -8.4997   -8.1542   -7.6801   -7.6529   -7.1369
          -6.5777   -6.5492   -6.5150   -5.4070   -5.4043   -3.7308   -1.0061   -0.7977    2.4445    2.4491
    7.3242    8.0837    8.3021    8.4594   11.6255   11.9657   19.1511
  57  1  -10.4487   -9.6533   -9.3995   -9.1987   -8.6160   -8.4598   -8.4011   -7.8532   -7.4728   -7.4038
          -6.7850   -6.7642   -5.9684   -5.9103   -5.7227   -5.2976   -3.3788   -2.7703    4.6708    7.1818
    8.8506    8.8924    9.5028   11.8686   14.5203   15.1473   21.7046
  58  1  -11.6530   -9.6661   -9.6326   -8.7000   -8.6263   -8.3969   -8.2785   -8.2428   -7.6785   -7.6051
          -6.9470   -6.9361   -6.9137   -6.2353   -6.1938   -6.1116   -4.3438   -4.1778    6.5871    7.1901
   11.4421   11.4850   16.5516   17.5407   17.6797   17.8502   23.4308
  59  1  -12.4382  -10.3185  -10.3121   -8.1780   -8.1056   -8.0538   -7.9792   -7.8602   -7.8453   -7.7670
          -7.6069   -7.5546   -6.7226   -6.5207   -6.4383   -5.6130   -5.3402   -4.9846    5.7166    6.4411
   15.2397   17.0305   19.1022   20.4113   21.0291   22.2371   23.3318
  60  1  -12.4387  -10.3544  -10.2754   -8.1624   -8.1039   -8.0836   -8.0090   -7.8702   -7.8541   -7.6963
          -7.6284   -7.5356   -6.6975   -6.5412   -6.3620   -5.6596   -5.5062   -4.8639    5.8210    6.3370
   15.1864   17.0909   19.3540   20.2210   20.7920   22.4199   23.3263
  61  1  -11.6530   -9.6661   -9.6326   -8.7000   -8.6263   -8.3969   -8.2785   -8.2428   -7.6785   -7.6051
          -6.9470   -6.9361   -6.9137   -6.2353   -6.1938   -6.1116   -4.3438   -4.1778    6.5871    7.1901
   11.4421   11.4850   16.5516   17.5407   17.6797   17.8502   23.4308
  62  1  -10.4242   -9.6220   -9.3877   -9.2916   -8.5732   -8.5165   -8.3743   -7.8736   -7.4966   -7.3467
          -6.8314   -6.7762   -5.9803   -5.9098   -5.6787   -5.2914   -3.1472   -2.9619    4.6643    6.8644
    8.6077    9.4376    9.7898   11.5973   14.2150   15.4860   21.5990
  63  1  -10.0258   -9.7791   -9.7247   -9.6115   -8.6093   -8.3528   -7.9232   -7.5043   -7.2849   -7.2505
          -6.1783   -5.8947   -5.7609   -5.5341   -5.2003   -3.6194   -1.2170   -0.4860   -0.3653    3.3753
    3.8708    7.5498    9.8833   12.0725   12.5055   14.6093   17.7544
  64  1  -10.0364   -9.8422   -9.7260   -9.5385   -8.6493   -8.3286   -7.7986   -7.5854   -7.3514   -7.1858
          -6.1518   -5.9016   -5.7707   -5.5386   -5.2140   -3.6389   -1.4331   -0.3863   -0.2237    3.5996
    3.6147    7.6086   10.0775   11.6058   12.8503   14.2329   18.0666
  65  1  -10.3640  -10.1070   -9.7968   -9.6012   -8.4767   -8.0319   -7.9739   -7.5859   -7.5381   -7.2953
          -5.9042   -5.8286   -5.7597   -5.6290   -5.4296   -5.2966   -3.4035   -2.0823    1.7846    5.9000
    6.0007    9.3403   10.4004   10.4757   16.8472   17.2205   19.3478
  66  1  -11.3406   -9.8546   -9.3666   -9.1629   -8.4926   -8.3677   -8.1633   -7.6949   -7.6231   -7.5852
          -7.1313   -6.7112   -6.6721   -6.5463   -6.2421   -5.4393   -4.5583   -3.6634    7.1355    7.1799
    8.1321   12.8044   13.2974   13.7593   19.0099   19.6877   22.1541
  67  1  -12.4387  -10.3544  -10.2754   -8.1624   -8.1039   -8.0836   -8.0090   -7.8702   -7.8541   -7.6963
          -7.6284   -7.5356   -6.6975   -6.5412   -6.3620   -5.6596   -5.5062   -4.8639    5.8210    6.3370
   15.1864   17.0909   19.3540   20.2210   20.7920   22.4199   23.3263
  68  1  -12.8547  -10.7419  -10.7032   -8.0241   -8.0135   -8.0135   -7.8775   -7.8775   -7.8576   -7.8576
          -7.2587   -7.0711   -6.5634   -6.5634   -6.0094   -6.0094   -5.9481   -5.9481    5.3520    5.9716
   20.1816   20.1816   20.3157   20.3157   23.5974   23.6153   23.6153
  69  1  -12.4382  -10.3185  -10.3121   -8.1780   -8.1056   -8.0538   -7.9792   -7.8602   -7.8453   -7.7670
          -7.6069   -7.5546   -6.7226   -6.5207   -6.4383   -5.6130   -5.3402   -4.9846    5.7166    6.4411
   15.2397   17.0305   19.1022   20.4113   21.0291   22.2371   23.3318
  70  1  -11.3297   -9.8309   -9.4229   -9.1214   -8.5167   -8.4220   -8.1365   -7.6840   -7.6038   -7.5884
          -7.1466   -6.7304   -6.6964   -6.5967   -6.2234   -5.4049   -4.3154   -3.8217    6.5414    7.4599
    8.4718   13.0954   13.2715   13.4249   19.3158   19.4045   22.0911
  71  1  -10.3150  -10.0917   -9.7862   -9.6686   -8.4484   -8.1214   -8.0314   -7.5258   -7.4642   -7.3629
          -5.9618   -5.8343   -5.7806   -5.6197   -5.3994   -5.2698   -3.1022   -2.2865    1.7707    5.6058
    6.1666    9.0205   10.3911   11.0594   16.9013   17.1751   19.0847
  72  1  -10.2872  -10.0107   -9.9943   -9.9501   -8.3972   -8.3648   -7.5430   -7.4724   -7.4006   -7.2744
          -5.4515   -5.3621   -5.3569   -5.1021   -5.0931   -2.6579   -2.6026   -1.8135    0.9071    1.1201
    2.6973    9.2723    9.2822   14.6653   15.1420   15.9195   16.2487
  73  1  -10.0364   -9.8422   -9.7260   -9.5385   -8.6493   -8.3286   -7.7986   -7.5854   -7.3514   -7.1858
          -6.1518   -5.9016   -5.7707   -5.5386   -5.2140   -3.6389   -1.4331   -0.3863   -0.2237    3.5996
    3.6147    7.6086   10.0775   11.6058   12.8503   14.2329   18.0666
  74  1  -10.4487   -9.6533   -9.3995   -9.1987   -8.6160   -8.4598   -8.4011   -7.8532   -7.4728   -7.4038
          -6.7850   -6.7642   -5.9684   -5.9103   -5.7227   -5.2976   -3.3788   -2.7703    4.6708    7.1818
    8.8506    8.8924    9.5028   11.8686   14.5203   15.1473   21.7046
  75  1  -11.6530   -9.6661   -9.6326   -8.7000   -8.6263   -8.3969   -8.2785   -8.2428   -7.6785   -7.6051
          -6.9470   -6.9361   -6.9137   -6.2353   -6.1938   -6.1116   -4.3438   -4.1778    6.5871    7.1901
   11.4421   11.4850   16.5516   17.5407   17.6797   17.8502   23.4308
  76  1  -12.4382  -10.3185  -10.3121   -8.1780   -8.1056   -8.0538   -7.9792   -7.8602   -7.8453   -7.7670
          -7.6069   -7.5546   -6.7226   -6.5207   -6.4383   -5.6130   -5.3402   -4.9846    5.7166    6.4411
   15.2397   17.0305   19.1022   20.4113   21.0291   22.2371   23.3318
  77  1  -12.4387  -10.3544  -10.2754   -8.1624   -8.1039   -8.0836   -8.0090   -7.8702   -7.8541   -7.6963
          -7.6284   -7.5356   -6.6975   -6.5412   -6.3620   -5.6596   -5.5062   -4.8639    5.8210    6.3370
   15.1864   17.0909   19.3540   20.2210   20.7920   22.4199   23.3263
  78  1  -11.6530   -9.6661   -9.6326   -8.7000   -8.6263   -8.3969   -8.2785   -8.2428   -7.6785   -7.6051
          -6.9470   -6.9361   -6.9137   -6.2353   -6.1938   -6.1116   -4.3438   -4.1778    6.5871    7.1901
   11.4421   11.4850   16.5516   17.5407   17.6797   17.8502   23.4308
  79  1  -10.4242   -9.6220   -9.3877   -9.2916   -8.5732   -8.5165   -8.3743   -7.8736   -7.4966   -7.3467
          -6.8314   -6.7762   -5.9803   -5.9098   -5.6787   -5.2914   -3.1472   -2.9619    4.6643    6.8644
    8.6077    9.4376    9.7898   11.5973   14.2150   15.4860   21.5990
  80  1  -10.0258   -9.7791   -9.7247   -9.6115   -8.6093   -8.3528   -7.9232   -7.5043   -7.2849   -7.2505
          -6.1783   -5.8947   -5.7609   -5.5341   -5.2003   -3.6194   -1.2170   -0.4860   -0.3653    3.3753
    3.8708    7.5498    9.8833   12.0725   12.5055   14.6093   17.7544
  81  1   -9.7063   -9.3562   -9.3157   -9.0783   -8.5417   -8.5329   -7.9409   -7.8815   -7.1383   -6.9412
          -6.9025   -6.2813   -5.8757   -5.8705   -5.5316   -1.4994   -1.4959    0.9115    1.8240    2.7580
    3.0314    5.0452    7.2188    7.5481   12.3140   15.1772   15.3868
  82  1   -9.5649   -9.5276   -9.4017   -8.9403   -8.9301   -8.4997   -8.1542   -7.6801   -7.6529   -7.1369
          -6.5777   -6.5492   -6.5150   -5.4070   -5.4043   -3.7308   -1.0061   -0.7977    2.4445    2.4491
    7.3242    8.0837    8.3021    8.4594   11.6255   11.9657   19.1511
  83  1  -10.4242   -9.6220   -9.3877   -9.2916   -8.5732   -8.5165   -8.3743   -7.8736   -7.4966   -7.3467
          -6.8314   -6.7762   -5.9803   -5.9098   -5.6787   -5.2914   -3.1472   -2.9619    4.6643    6.8644
    8.6077    9.4376    9.7898   11.5973   14.2150   15.4860   21.5990
  84  1  -11.3297   -9.8309   -9.4229   -9.1214   -8.5167   -8.4220   -8.1365   -7.6840   -7.6038   -7.5884
          -7.1466   -6.7304   -6.6964   -6.5967   -6.2234   -5.4049   -4.3154   -3.8217    6.5414    7.4599
    8.4718   13.0954   13.2715   13.4249   19.3158   19.4045   22.0911
  85  1  -11.6530   -9.6661   -9.6326   -8.7000   -8.6263   -8.3969   -8.2785   -8.2428   -7.6785   -7.6051
          -6.9470   -6.9361   -6.9137   -6.2353   -6.1938   -6.1116   -4.3438   -4.1778    6.5871    7.1901
   11.4421   11.4850   16.5516   17.5407   17.6797   17.8502   23.4308
  86  1  -11.3406   -9.8546   -9.3666   -9.1629   -8.4926   -8.3677   -8.1633   -7.6949   -7.6231   -7.5852
          -7.1313   -6.7112   -6.6721   -6.5463   -6.2421   -5.4393   -4.5583   -3.6634    7.1355    7.1799
    8.1321   12.8044   13.2974   13.7593   19.0099   19.6877   22.1541
  87  1  -10.4487   -9.6533   -9.3995   -9.1987   -8.6160   -8.4598   -8.4011   -7.8532   -7.4728   -7.4038
          -6.7850   -6.7642   -5.9684   -5.9103   -5.7227   -5.2976   -3.3788   -2.7703    4.6708    7.1818
    8.8506    8.8924    9.5028   11.8686   14.5203   15.1473   21.7046
  88  1   -9.5649   -9.5276   -9.4017   -8.9403   -8.9301   -8.4997   -8.1542   -7.6801   -7.6529   -7.1369
          -6.5777   -6.5492   -6.5150   -5.4070   -5.4043   -3.7308   -1.0061   -0.7977    2.4445    2.4491
    7.3242    8.0837    8.3021    8.4594   11.6255   11.9657   19.1511
  89  1   -9.7063   -9.3562   -9.3157   -9.0783   -8.5417   -8.5329   -7.9409   -7.8815   -7.1383   -6.9412
          -6.9025   -6.2813   -5.8757   -5.8705   -5.5316   -1.4994   -1.4959    0.9115    1.8240    2.7580
    3.0314    5.0452    7.2188    7.5481   12.3140   15.1772   15.3868
  90  1   -9.7063   -9.3562   -9.3157   -9.0783   -8.5417   -8.5329   -7.9409   -7.8815   -7.1383   -6.9412
          -6.9025   -6.2813   -5.8757   -5.8705   -5.5316   -1.4994   -1.4959    0.9115    1.8240    2.7580
    3.0314    5.0452    7.2188    7.5481   12.3140   15.1772   15.3868
  91  1  -10.0258   -9.7791   -9.7247   -9.6115   -8.6093   -8.3528   -7.9232   -7.5043   -7.2849   -7.2505
          -6.1783   -5.8947   -5.7609   -5.5341   -5.2003   -3.6194   -1.2170   -0.4860   -0.3653    3.3753
    3.8708    7.5498    9.8833   12.0725   12.5055   14.6093   17.7544
  92  1  -10.3150  -10.0917   -9.7862   -9.6686   -8.4484   -8.1214   -8.0314   -7.5258   -7.4642   -7.3629
          -5.9618   -5.8343   -5.7806   -5.6197   -5.3994   -5.2698   -3.1022   -2.2865    1.7707    5.6058
    6.1666    9.0205   10.3911   11.0594   16.9013   17.1751   19.0847
  93  1  -10.4242   -9.6220   -9.3877   -9.2916   -8.5732   -8.5165   -8.3743   -7.8736   -7.4966   -7.3467
          -6.8314   -6.7762   -5.9803   -5.9098   -5.6787   -5.2914   -3.1472   -2.9619    4.6643    6.8644
    8.6077    9.4376    9.7898   11.5973   14.2150   15.4860   21.5990
  94  1  -10.4487   -9.6533   -9.3995   -9.1987   -8.6160   -8.4598   -8.4011   -7.8532   -7.4728   -7.4038
          -6.7850   -6.7642   -5.9684   -5.9103   -5.7227   -5.2976   -3.3788   -2.7703    4.6708    7.1818
    8.8506    8.8924    9.5028   11.8686   14.5203   15.1473   21.7046
  95  1  -10.3640  -10.1070   -9.7968   -9.6012   -8.4767   -8.0319   -7.9739   -7.5859   -7.5381   -7.2953
          -5.9042   -5.8286   -5.7597   -5.6290   -5.4296   -5.2966   -3.4035   -2.0823    1.7846    5.9000
    6.0007    9.3403   10.4004   10.4757   16.8472   17.2205   19.3478
  96  1  -10.0364   -9.8422   -9.7260   -9.5385   -8.6493   -8.3286   -7.7986   -7.5854   -7.3514   -7.1858
          -6.1518   -5.9016   -5.7707   -5.5386   -5.2140   -3.6389   -1.4331   -0.3863   -0.2237    3.5996
    3.6147    7.6086   10.0775   11.6058   12.8503   14.2329   18.0666
  97  1  -10.0258   -9.7791   -9.7247   -9.6115   -8.6093   -8.3528   -7.9232   -7.5043   -7.2849   -7.2505
          -6.1783   -5.8947   -5.7609   -5.5341   -5.2003   -3.6194   -1.2170   -0.4860   -0.3653    3.3753
    3.8708    7.5498    9.8833   12.0725   12.5055   14.6093   17.7544
  98  1   -9.5649   -9.5276   -9.4017   -8.9403   -8.9301   -8.4997   -8.1542   -7.6801   -7.6529   -7.1369
          -6.5777   -6.5492   -6.5150   -5.4070   -5.4043   -3.7308   -1.0061   -0.7977    2.4445    2.4491
    7.3242    8.0837    8.3021    8.4594   11.6255   11.9657   19.1511
  99  1  -10.0364   -9.8422   -9.7260   -9.5385   -8.6493   -8.3286   -7.7986   -7.5854   -7.3514   -7.1858
          -6.1518   -5.9016   -5.7707   -5.5386   -5.2140   -3.6389   -1.4331   -0.3863   -0.2237    3.5996
    3.6147    7.6086   10.0775   11.6058   12.8503   14.2329   18.0666
 100  1  -10.2872  -10.0107   -9.9943   -9.9501   -8.3972   -8.3648   -7.5430   -7.4724   -7.4006   -7.2744
          -5.4515   -5.3621   -5.3569   -5.1021   -5.0931   -2.6579   -2.6026   -1.8135    0.9071    1.1201
    2.6973    9.2723    9.2822   14.6653   15.1420   15.9195   16.2487
 101  1  -10.0258   -9.7791   -9.7247   -9.6115   -8.6093   -8.3528   -7.9232   -7.5043   -7.2849   -7.2505
          -6.1783   -5.8947   -5.7609   -5.5341   -5.2003   -3.6194   -1.2170   -0.4860   -0.3653    3.3753
    3.8708    7.5498    9.8833   12.0725   12.5055   14.6093   17.7544
 102  1   -9.5649   -9.5276   -9.4017   -8.9403   -8.9301   -8.4997   -8.1542   -7.6801   -7.6529   -7.1369
          -6.5777   -6.5492   -6.5150   -5.4070   -5.4043   -3.7308   -1.0061   -0.7977    2.4445    2.4491
    7.3242    8.0837    8.3021    8.4594   11.6255   11.9657   19.1511
 103  1  -10.0364   -9.8422   -9.7260   -9.5385   -8.6493   -8.3286   -7.7986   -7.5854   -7.3514   -7.1858
          -6.1518   -5.9016   -5.7707   -5.5386   -5.2140   -3.6389   -1.4331   -0.3863   -0.2237    3.5996
    3.6147    7.6086   10.0775   11.6058   12.8503   14.2329   18.0666
 104  1  -10.2872  -10.0107   -9.9943   -9.9501   -8.3972   -8.3648   -7.5430   -7.4724   -7.4006   -7.2744
          -5.4515   -5.3621   -5.3569   -5.1021   -5.0931   -2.6579   -2.6026   -1.8135    0.9071    1.1201
    2.6973    9.2723    9.2822   14.6653   15.1420   15.9195   16.2487
 105  1  -10.2899  -10.0833   -9.7789   -9.7045   -8.4325   -8.1889   -8.0339   -7.4942   -7.4260   -7.3959
          -5.9920   -5.8366   -5.7915   -5.6153   -5.3854   -5.2591   -2.9487   -2.3892    1.7686    5.4116
    6.3020    8.8568   10.3936   11.3538   16.7399   17.3366   18.9417
 106  1  -10.4110   -9.6077   -9.3789   -9.3379   -8.5523   -8.5449   -8.3601   -7.8841   -7.5089   -7.3159
          -6.8571   -6.7802   -5.9936   -5.9068   -5.6524   -5.2889   -3.0564   -3.0277    4.6664    6.6861
    8.4898    9.7344    9.9336   11.4663   14.0631   15.6544   21.5313
 107  1  -10.4599   -9.6699   -9.4027   -9.1524   -8.6378   -8.4319   -8.4135   -7.8435   -7.4616   -7.4300
          -6.7647   -6.7559   -5.9733   -5.9076   -5.7368   -5.3013   -3.4908   -2.6732    4.6794    7.3197
    8.5607    9.0606    9.3602   12.0076   14.6730   14.9776   21.7421
 108  1  -10.3877  -10.1139   -9.8002   -9.5704   -8.4890   -8.0257   -7.9035   -7.6144   -7.5732   -7.2606
          -5.8767   -5.8252   -5.7497   -5.6338   -5.4458   -5.3128   -3.5512   -1.9808    1.7964    5.7689
    6.2012    9.4953   10.1869   10.4122   16.6813   17.3778   19.4675
 109  1  -10.0399   -9.8732   -9.7253   -9.5024   -8.6687   -8.3163   -7.7390   -7.6260   -7.3792   -7.1525
          -6.1426   -5.9046   -5.7810   -5.5395   -5.2190   -3.6484   -1.5380   -0.3912   -0.0940    3.4890
    3.7154    7.6453   10.1639   11.3716   13.0229   14.0429   18.2100
 110  1   -9.7044   -9.3750   -9.2941   -9.0775   -8.5472   -8.5299   -7.9722   -7.8536   -7.1431   -6.9604
          -6.8832   -6.2841   -5.8755   -5.8652   -5.5284   -1.4979   -1.4908    0.9062    1.8228    2.6237
    3.1704    5.0632    7.0565    7.7149   12.2976   15.0570   15.4753
 111  1   -9.7044   -9.3750   -9.2941   -9.0775   -8.5472   -8.5299   -7.9722   -7.8536   -7.1431   -6.9604
          -6.8832   -6.2841   -5.8755   -5.8652   -5.5284   -1.4979   -1.4908    0.9062    1.8228    2.6237
    3.1704    5.0632    7.0565    7.7149   12.2976   15.0570   15.4753
 112  1  -10.0187   -9.7473   -9.7226   -9.6481   -8.5890   -8.3646   -7.9858   -7.4646   -7.2815   -7.2481
          -6.1952   -5.8908   -5.7617   -5.5306   -5.1915   -3.6096   -1.1061   -0.6124   -0.3552    3.2672
    4.0012    7.5273    9.7767   12.3046   12.3337   14.7946   17.5865
 113  1  -10.4110   -9.6077   -9.3789   -9.3379   -8.5523   -8.5449   -8.3601   -7.8841   -7.5089   -7.3159
          -6.8571   -6.7802   -5.9936   -5.9068   -5.6524   -5.2889   -3.0564   -3.0277    4.6664    6.6861
    8.4898    9.7344    9.9336   11.4663   14.0631   15.6544   21.5313
 114  1  -11.3222   -9.8205   -9.4574   -9.0992   -8.5243   -8.4491   -8.1215   -7.6783   -7.6122   -7.5697
          -7.1560   -6.7404   -6.7080   -6.6190   -6.2145   -5.3896   -4.1903   -3.8993    6.2498    7.5424
    8.7102   13.2409   13.2582   13.2649   19.2607   19.4663   22.0444
 115  1  -11.6506   -9.6872   -9.6196   -8.7331   -8.5870   -8.3984   -8.2946   -8.2239   -7.6780   -7.6036
          -6.9473   -6.9462   -6.9025   -6.2360   -6.2353   -6.0719   -4.4235   -4.0913    6.2910    7.4967
   11.4263   11.5123   16.5032   17.3862   17.7227   18.0045   23.4161
 116  1  -11.3439   -9.8682   -9.3452   -9.1817   -8.4768   -8.3406   -8.1741   -7.7003   -7.6390   -7.5749
          -7.1252   -6.7020   -6.6592   -6.5185   -6.2518   -5.4582   -4.6761   -3.5825    6.9757    7.4376
    8.0377   12.6592   13.3167   13.9264   18.8550   19.8267   22.1700
 117  1  -10.4599   -9.6699   -9.4027   -9.1524   -8.6378   -8.4319   -8.4135   -7.8435   -7.4616   -7.4300
          -6.7647   -6.7559   -5.9733   -5.9076   -5.7368   -5.3013   -3.4908   -2.6732    4.6794    7.3197
    8.5607    9.0606    9.3602   12.0076   14.6730   14.9776   21.7421
 118  1   -9.5825   -9.5081   -9.4029   -8.9442   -8.9240   -8.4992   -8.1568   -7.6953   -7.6410   -7.1346
          -6.5727   -6.5698   -6.5019   -5.4056   -5.4006   -3.7301   -1.1090   -0.6924    2.4479    2.4572
    7.2582    7.8982    8.3721    8.6495   11.4503   12.1291   19.1327
 119  1   -9.7044   -9.3750   -9.2941   -9.0775   -8.5472   -8.5299   -7.9722   -7.8536   -7.1431   -6.9604
          -6.8832   -6.2841   -5.8755   -5.8652   -5.5284   -1.4979   -1.4908    0.9062    1.8228    2.6237
    3.1704    5.0632    7.0565    7.7149   12.2976   15.0570   15.4753
 120  1   -9.5825   -9.5081   -9.4029   -8.9442   -8.9240   -8.4992   -8.1568   -7.6953   -7.6410   -7.1346
          -6.5727   -6.5698   -6.5019   -5.4056   -5.4006   -3.7301   -1.1090   -0.6924    2.4479    2.4572
    7.2582    7.8982    8.3721    8.6495   11.4503   12.1291   19.1327
 121  1  -10.4599   -9.6699   -9.4027   -9.1524   -8.6378   -8.4319   -8.4135   -7.8435   -7.4616   -7.4300
          -6.7647   -6.7559   -5.9733   -5.9076   -5.7368   -5.3013   -3.4908   -2.6732    4.6794    7.3197
    8.5607    9.0606    9.3602   12.0076   14.6730   14.9776   21.7421
 122  1  -11.6506   -9.6872   -9.6196   -8.7331   -8.5870   -8.3984   -8.2946   -8.2239   -7.6780   -7.6036
          -6.9473   -6.9462   -6.9025   -6.2360   -6.2353   -6.0719   -4.4235   -4.0913    6.2910    7.4967
   11.4263   11.5123   16.5032   17.3862   17.7227   18.0045   23.4161
 123  1  -12.4353  -10.3338  -10.3034   -8.1872   -8.1261   -8.0652   -7.9246   -7.8536   -7.8396   -7.7893
          -7.5958   -7.5643   -6.7354   -6.5110   -6.4761   -5.5908   -5.2536   -5.0427    5.4135    6.7583
   15.2710   17.0052   18.9759   20.5008   21.1465   22.1423   23.3151
 124  1  -12.4362  -10.3755  -10.2603   -8.1563   -8.1542   -8.0807   -7.9950   -7.8734   -7.8572   -7.6498
          -7.6388   -7.5263   -6.6853   -6.5519   -6.3237   -5.6838   -5.5857   -4.8011    5.5181    6.6543
   15.1646   17.1259   19.4792   20.1211   20.6726   22.5076   23.3035
 125  1  -11.6506   -9.6872   -9.6196   -8.7331   -8.5870   -8.3984   -8.2946   -8.2239   -7.6780   -7.6036
          -6.9473   -6.9462   -6.9025   -6.2360   -6.2353   -6.0719   -4.4235   -4.0913    6.2910    7.4967
   11.4263   11.5123   16.5032   17.3862   17.7227   18.0045   23.4161
 126  1  -10.4110   -9.6077   -9.3789   -9.3379   -8.5523   -8.5449   -8.3601   -7.8841   -7.5089   -7.3159
          -6.8571   -6.7802   -5.9936   -5.9068   -5.6524   -5.2889   -3.0564   -3.0277    4.6664    6.6861
    8.4898    9.7344    9.9336   11.4663   14.0631   15.6544   21.5313
 127  1  -10.0187   -9.7473   -9.7226   -9.6481   -8.5890   -8.3646   -7.9858   -7.4646   -7.2815   -7.2481
          -6.1952   -5.8908   -5.7617   -5.5306   -5.1915   -3.6096   -1.1061   -0.6124   -0.3552    3.2672
    4.0012    7.5273    9.7767   12.3046   12.3337   14.7946   17.5865
 128  1  -10.0399   -9.8732   -9.7253   -9.5024   -8.6687   -8.3163   -7.7390   -7.6260   -7.3792   -7.1525
          -6.1426   -5.9046   -5.7810   -5.5395   -5.2190   -3.6484   -1.5380   -0.3912   -0.0940    3.4890
    3.7154    7.6453   10.1639   11.3716   13.0229   14.0429   18.2100
 129  1  -10.3877  -10.1139   -9.8002   -9.5704   -8.4890   -8.0257   -7.9035   -7.6144   -7.5732   -7.2606
          -5.8767   -5.8252   -5.7497   -5.6338   -5.4458   -5.3128   -3.5512   -1.9808    1.7964    5.7689
    6.2012    9.4953   10.1869   10.4122   16.6813   17.3778   19.4675
 130  1  -11.3439   -9.8682   -9.3452   -9.1817   -8.4768   -8.3406   -8.1741   -7.7003   -7.6390   -7.5749
          -7.1252   -6.7020   -6.6592   -6.5185   -6.2518   -5.4582   -4.6761   -3.5825    6.9757    7.4376
    8.0377   12.6592   13.3167   13.9264   18.8550   19.8267   22.1700
 131  1  -12.4362  -10.3755  -10.2603   -8.1563   -8.1542   -8.0807   -7.9950   -7.8734   -7.8572   -7.6498
          -7.6388   -7.5263   -6.6853   -6.5519   -6.3237   -5.6838   -5.5857   -4.8011    5.5181    6.6543
   15.1646   17.1259   19.4792   20.1211   20.6726   22.5076   23.3035
 132  1  -12.8519  -10.7642  -10.6866   -8.0251   -8.0124   -8.0124   -7.8874   -7.8874   -7.8476   -7.8476
          -7.3462   -6.9713   -6.5639   -6.5639   -6.0402   -6.0402   -5.9177   -5.9177    5.0499    6.2890
   20.1166   20.1166   20.3846   20.3846   23.5716   23.6110   23.6110
 133  1  -12.4353  -10.3338  -10.3034   -8.1872   -8.1261   -8.0652   -7.9246   -7.8536   -7.8396   -7.7893
          -7.5958   -7.5643   -6.7354   -6.5110   -6.4761   -5.5908   -5.2536   -5.0427    5.4135    6.7583
   15.2710   17.0052   18.9759   20.5008   21.1465   22.1423   23.3151
 134  1  -11.3222   -9.8205   -9.4574   -9.0992   -8.5243   -8.4491   -8.1215   -7.6783   -7.6122   -7.5697
          -7.1560   -6.7404   -6.7080   -6.6190   -6.2145   -5.3896   -4.1903   -3.8993    6.2498    7.5424
    8.7102   13.2409   13.2582   13.2649   19.2607   19.4663   22.0444
 135  1  -10.2899  -10.0833   -9.7789   -9.7045   -8.4325   -8.1889   -8.0339   -7.4942   -7.4260   -7.3959
          -5.9920   -5.8366   -5.7915   -5.6153   -5.3854   -5.2591   -2.9487   -2.3892    1.7686    5.4116
    6.3020    8.8568   10.3936   11.3538   16.7399   17.3366   18.9417
 136  1  -10.2855  -10.0417   -9.9928   -9.9210   -8.4139   -8.3489   -7.5769   -7.4588   -7.4356   -7.2073
          -5.4535   -5.3646   -5.3542   -5.1100   -5.0947   -2.6879   -2.5772   -1.8162    0.8049    1.2306
    2.7122    9.2591    9.2897   14.4229   15.3755   15.7530   16.4110
 137  1  -10.0399   -9.8732   -9.7253   -9.5024   -8.6687   -8.3163   -7.7390   -7.6260   -7.3792   -7.1525
          -6.1426   -5.9046   -5.7810   -5.5395   -5.2190   -3.6484   -1.5380   -0.3912   -0.0940    3.4890
    3.7154    7.6453   10.1639   11.3716   13.0229   14.0429   18.2100
 138  1  -10.4599   -9.6699   -9.4027   -9.1524   -8.6378   -8.4319   -8.4135   -7.8435   -7.4616   -7.4300
          -6.7647   -6.7559   -5.9733   -5.9076   -5.7368   -5.3013   -3.4908   -2.6732    4.6794    7.3197
    8.5607    9.0606    9.3602   12.0076   14.6730   14.9776   21.7421
 139  1  -11.6506   -9.6872   -9.6196   -8.7331   -8.5870   -8.3984   -8.2946   -8.2239   -7.6780   -7.6036
          -6.9473   -6.9462   -6.9025   -6.2360   -6.2353   -6.0719   -4.4235   -4.0913    6.2910    7.4967
   11.4263   11.5123   16.5032   17.3862   17.7227   18.0045   23.4161
 140  1  -12.4353  -10.3338  -10.3034   -8.1872   -8.1261   -8.0652   -7.9246   -7.8536   -7.8396   -7.7893
          -7.5958   -7.5643   -6.7354   -6.5110   -6.4761   -5.5908   -5.2536   -5.0427    5.4135    6.7583
   15.2710   17.0052   18.9759   20.5008   21.1465   22.1423   23.3151
 141  1  -12.4362  -10.3755  -10.2603   -8.1563   -8.1542   -8.0807   -7.9950   -7.8734   -7.8572   -7.6498
          -7.6388   -7.5263   -6.6853   -6.5519   -6.3237   -5.6838   -5.5857   -4.8011    5.5181    6.6543
   15.1646   17.1259   19.4792   20.1211   20.6726   22.5076   23.3035
 142  1  -11.6506   -9.6872   -9.6196   -8.7331   -8.5870   -8.3984   -8.2946   -8.2239   -7.6780   -7.6036
          -6.9473   -6.9462   -6.9025   -6.2360   -6.2353   -6.0719   -4.4235   -4.0913    6.2910    7.4967
   11.4263   11.5123   16.5032   17.3862   17.7227   18.0045   23.4161
 143  1  -10.4110   -9.6077   -9.3789   -9.3379   -8.5523   -8.5449   -8.3601   -7.8841   -7.5089   -7.3159
          -6.8571   -6.7802   -5.9936   -5.9068   -5.6524   -5.2889   -3.0564   -3.0277    4.6664    6.6861
    8.4898    9.7344    9.9336   11.4663   14.0631   15.6544   21.5313
 144  1  -10.0187   -9.7473   -9.7226   -9.6481   -8.5890   -8.3646   -7.9858   -7.4646   -7.2815   -7.2481
          -6.1952   -5.8908   -5.7617   -5.5306   -5.1915   -3.6096   -1.1061   -0.6124   -0.3552    3.2672
    4.0012    7.5273    9.7767   12.3046   12.3337   14.7946   17.5865
 145  1   -9.7044   -9.3750   -9.2941   -9.0775   -8.5472   -8.5299   -7.9722   -7.8536   -7.1431   -6.9604
          -6.8832   -6.2841   -5.8755   -5.8652   -5.5284   -1.4979   -1.4908    0.9062    1.8228    2.6237
    3.1704    5.0632    7.0565    7.7149   12.2976   15.0570   15.4753
 146  1   -9.5825   -9.5081   -9.4029   -8.9442   -8.9240   -8.4992   -8.1568   -7.6953   -7.6410   -7.1346
          -6.5727   -6.5698   -6.5019   -5.4056   -5.4006   -3.7301   -1.1090   -0.6924    2.4479    2.4572
    7.2582    7.8982    8.3721    8.6495   11.4503   12.1291   19.1327
 147  1  -10.4110   -9.6077   -9.3789   -9.3379   -8.5523   -8.5449   -8.3601   -7.8841   -7.5089   -7.3159
          -6.8571   -6.7802   -5.9936   -5.9068   -5.6524   -5.2889   -3.0564   -3.0277    4.6664    6.6861
    8.4898    9.7344    9.9336   11.4663   14.0631   15.6544   21.5313
 148  1  -11.3222   -9.8205   -9.4574   -9.0992   -8.5243   -8.4491   -8.1215   -7.6783   -7.6122   -7.5697
          -7.1560   -6.7404   -6.7080   -6.6190   -6.2145   -5.3896   -4.1903   -3.8993    6.2498    7.5424
    8.7102   13.2409   13.2582   13.2649   19.2607   19.4663   22.0444
 149  1  -11.6506   -9.6872   -9.6196   -8.7331   -8.5870   -8.3984   -8.2946   -8.2239   -7.6780   -7.6036
          -6.9473   -6.9462   -6.9025   -6.2360   -6.2353   -6.0719   -4.4235   -4.0913    6.2910    7.4967
   11.4263   11.5123   16.5032   17.3862   17.7227   18.0045   23.4161
 150  1  -11.3439   -9.8682   -9.3452   -9.1817   -8.4768   -8.3406   -8.1741   -7.7003   -7.6390   -7.5749
          -7.1252   -6.7020   -6.6592   -6.5185   -6.2518   -5.4582   -4.6761   -3.5825    6.9757    7.4376
    8.0377   12.6592   13.3167   13.9264   18.8550   19.8267   22.1700
 151  1  -10.4599   -9.6699   -9.4027   -9.1524   -8.6378   -8.4319   -8.4135   -7.8435   -7.4616   -7.4300
          -6.7647   -6.7559   -5.9733   -5.9076   -5.7368   -5.3013   -3.4908   -2.6732    4.6794    7.3197
    8.5607    9.0606    9.3602   12.0076   14.6730   14.9776   21.7421
 152  1   -9.5825   -9.5081   -9.4029   -8.9442   -8.9240   -8.4992   -8.1568   -7.6953   -7.6410   -7.1346
          -6.5727   -6.5698   -6.5019   -5.4056   -5.4006   -3.7301   -1.1090   -0.6924    2.4479    2.4572
    7.2582    7.8982    8.3721    8.6495   11.4503   12.1291   19.1327
 153  1   -9.7044   -9.3750   -9.2941   -9.0775   -8.5472   -8.5299   -7.9722   -7.8536   -7.1431   -6.9604
          -6.8832   -6.2841   -5.8755   -5.8652   -5.5284   -1.4979   -1.4908    0.9062    1.8228    2.6237
    3.1704    5.0632    7.0565    7.7149   12.2976   15.0570   15.4753
 154  1   -9.7044   -9.3750   -9.2941   -9.0775   -8.5472   -8.5299   -7.9722   -7.8536   -7.1431   -6.9604
          -6.8832   -6.2841   -5.8755   -5.8652   -5.5284   -1.4979   -1.4908    0.9062    1.8228    2.6237
    3.1704    5.0632    7.0565    7.7149   12.2976   15.0570   15.4753
 155  1  -10.0187   -9.7473   -9.7226   -9.6481   -8.5890   -8.3646   -7.9858   -7.4646   -7.2815   -7.2481
          -6.1952   -5.8908   -5.7617   -5.5306   -5.1915   -3.6096   -1.1061   -0.6124   -0.3552    3.2672
    4.0012    7.5273    9.7767   12.3046   12.3337   14.7946   17.5865
 156  1  -10.2899  -10.0833   -9.7789   -9.7045   -8.4325   -8.1889   -8.0339   -7.4942   -7.4260   -7.3959
          -5.9920   -5.8366   -5.7915   -5.6153   -5.3854   -5.2591   -2.9487   -2.3892    1.7686    5.4116
    6.3020    8.8568   10.3936   11.3538   16.7399   17.3365   18.9417
 157  1  -10.4110   -9.6077   -9.3789   -9.3379   -8.5523   -8.5449   -8.3601   -7.8841   -7.5089   -7.3159
          -6.8571   -6.7802   -5.9936   -5.9068   -5.6524   -5.2889   -3.0564   -3.0277    4.6664    6.6861
    8.4898    9.7344    9.9336   11.4663   14.0631   15.6544   21.5313
 158  1  -10.4599   -9.6699   -9.4027   -9.1524   -8.6378   -8.4319   -8.4135   -7.8435   -7.4616   -7.4300
          -6.7647   -6.7559   -5.9733   -5.9076   -5.7368   -5.3013   -3.4908   -2.6732    4.6794    7.3197
    8.5607    9.0606    9.3602   12.0076   14.6730   14.9776   21.7421
 159  1  -10.3877  -10.1139   -9.8002   -9.5704   -8.4890   -8.0257   -7.9035   -7.6144   -7.5732   -7.2606
          -5.8767   -5.8252   -5.7497   -5.6338   -5.4458   -5.3128   -3.5512   -1.9808    1.7964    5.7689
    6.2012    9.4953   10.1869   10.4122   16.6813   17.3778   19.4675
 160  1  -10.0399   -9.8732   -9.7253   -9.5024   -8.6687   -8.3163   -7.7390   -7.6260   -7.3792   -7.1525
          -6.1426   -5.9046   -5.7810   -5.5395   -5.2190   -3.6484   -1.5380   -0.3912   -0.0940    3.4890
    3.7154    7.6453   10.1639   11.3716   13.0229   14.0429   18.2100
 161  1  -10.0187   -9.7473   -9.7226   -9.6481   -8.5890   -8.3646   -7.9858   -7.4646   -7.2815   -7.2481
          -6.1952   -5.8908   -5.7617   -5.5306   -5.1915   -3.6096   -1.1061   -0.6124   -0.3552    3.2672
    4.0012    7.5273    9.7767   12.3046   12.3337   14.7946   17.5865
 162  1   -9.5825   -9.5081   -9.4029   -8.9442   -8.9240   -8.4992   -8.1568   -7.6953   -7.6410   -7.1346
          -6.5727   -6.5698   -6.5019   -5.4056   -5.4006   -3.7301   -1.1090   -0.6924    2.4479    2.4572
    7.2582    7.8982    8.3721    8.6495   11.4503   12.1291   19.1327
 163  1  -10.0399   -9.8732   -9.7253   -9.5024   -8.6687   -8.3163   -7.7390   -7.6260   -7.3792   -7.1525
          -6.1426   -5.9046   -5.7810   -5.5395   -5.2190   -3.6484   -1.5380   -0.3912   -0.0940    3.4890
    3.7154    7.6453   10.1639   11.3716   13.0229   14.0429   18.2100
 164  1  -10.2855  -10.0417   -9.9928   -9.9210   -8.4139   -8.3489   -7.5769   -7.4588   -7.4356   -7.2073
          -5.4535   -5.3646   -5.3542   -5.1100   -5.0947   -2.6879   -2.5772   -1.8162    0.8049    1.2306
    2.7122    9.2591    9.2897   14.4229   15.3755   15.7530   16.4110
 165  1  -10.0187   -9.7473   -9.7226   -9.6481   -8.5890   -8.3646   -7.9858   -7.4646   -7.2815   -7.2481
          -6.1952   -5.8908   -5.7617   -5.5306   -5.1915   -3.6096   -1.1061   -0.6124   -0.3552    3.2672
    4.0012    7.5273    9.7767   12.3046   12.3337   14.7946   17.5865
 166  1   -9.5825   -9.5081   -9.4029   -8.9442   -8.9240   -8.4992   -8.1568   -7.6953   -7.6410   -7.1346
          -6.5727   -6.5698   -6.5019   -5.4056   -5.4006   -3.7301   -1.1090   -0.6924    2.4479    2.4572
    7.2582    7.8982    8.3721    8.6495   11.4503   12.1291   19.1327
 167  1  -10.0399   -9.8732   -9.7253   -9.5024   -8.6687   -8.3163   -7.7390   -7.6260   -7.3792   -7.1525
          -6.1426   -5.9046   -5.7810   -5.5395   -5.2190   -3.6484   -1.5380   -0.3912   -0.0940    3.4890
    3.7154    7.6453   10.1639   11.3716   13.0229   14.0429   18.2100
 168  1  -10.2855  -10.0417   -9.9928   -9.9210   -8.4139   -8.3489   -7.5769   -7.4588   -7.4356   -7.2073
          -5.4535   -5.3646   -5.3542   -5.1100   -5.0947   -2.6879   -2.5772   -1.8162    0.8049    1.2306
    2.7122    9.2591    9.2897   14.4229   15.3755   15.7530   16.4110
 169  1  -10.2648  -10.0744   -9.7702   -9.7416   -8.4157   -8.2556   -8.0344   -7.4617   -7.4281   -7.3870
          -6.0229   -5.8386   -5.8027   -5.6111   -5.3722   -5.2502   -2.7934   -2.4923    1.7698    5.2195
    6.4388    8.6912   10.4010   11.6495   16.5776   17.4960   18.7915
 170  1  -10.3973   -9.5943   -9.3840   -9.3680   -8.5732   -8.5317   -8.3453   -7.8945   -7.5216   -7.2837
          -6.8842   -6.7831   -6.0099   -5.9023   -5.6254   -5.2868   -3.1503   -2.9057    4.6721    6.4968
    8.3860   10.0332   10.0772   11.3394   13.9122   15.8217   21.4537
 171  1  -10.4703   -9.6870   -9.4043   -9.1064   -8.6596   -8.4252   -8.4043   -7.8344   -7.4545   -7.4509
          -6.7466   -6.7459   -5.9873   -5.9028   -5.7438   -5.3054   -3.6004   -2.5752    4.6916    7.4445
    8.2736    9.2183    9.2453   12.1480   14.8080   14.8253   21.7694
 172  1  -10.4108  -10.1201   -9.8023   -9.5419   -8.4999   -8.0203   -7.8303   -7.6418   -7.6069   -7.2253
          -5.8503   -5.8213   -5.7400   -5.6387   -5.4626   -5.3307   -3.6969   -1.8797    1.8114    5.6394
    6.4036    9.6462    9.9005   10.4289   16.5144   17.5333   19.5788
 173  1  -10.0422   -9.9036   -9.7238   -9.4672   -8.6874   -8.3039   -7.6841   -7.6663   -7.4007   -7.1188
          -6.1367   -5.9070   -5.7943   -5.5395   -5.2227   -3.6579   -1.6404   -0.3947    0.0370    3.3650
    3.8334    7.6871   10.2425   11.1371   13.1954   13.8523   18.3442
 174  1   -9.7011   -9.3928   -9.2715   -9.0762   -8.5536   -8.5277   -8.0045   -7.8269   -7.1512   -6.9793
          -6.8642   -6.2886   -5.8732   -5.8581   -5.5232   -1.4943   -1.4836    0.8972    1.8213    2.4910
    3.3109    5.0929    6.8959    7.8831   12.2703   14.9272   15.5523
 175  1   -9.7011   -9.3928   -9.2715   -9.0762   -8.5536   -8.5277   -8.0045   -7.8269   -7.1512   -6.9793
          -6.8642   -6.2886   -5.8732   -5.8581   -5.5232   -1.4943   -1.4836    0.8972    1.8213    2.4910
    3.3109    5.0929    6.8959    7.8831   12.2703   14.9272   15.5523
 176  1  -10.0104   -9.7197   -9.7156   -9.6845   -8.5687   -8.3764   -8.0476   -7.4265   -7.3103   -7.2095
          -6.2143   -5.8867   -5.7661   -5.5263   -5.1818   -3.5998   -0.9938   -0.7386   -0.3423    3.1623
    4.1329    7.5091    9.6648   12.1623   12.5358   14.9772   17.4113
 177  1  -10.3973   -9.5943   -9.3840   -9.3680   -8.5732   -8.5317   -8.3453   -7.8945   -7.5216   -7.2837
          -6.8842   -6.7831   -6.0099   -5.9023   -5.6254   -5.2868   -3.1503   -2.9057    4.6721    6.4968
    8.3860   10.0332   10.0772   11.3394   13.9122   15.8217   21.4537
 178  1  -11.3134   -9.8108   -9.4959   -9.0762   -8.5288   -8.4762   -8.1057   -7.6724   -7.6199   -7.5501
          -7.1668   -6.7505   -6.7192   -6.6391   -6.2059   -5.3756   -4.0630   -3.9760    5.9619    7.6025
    8.9781   13.0920   13.2627   13.3861   19.1157   19.6150   21.9879
 179  1  -11.6466   -9.7114   -9.6089   -8.7632   -8.5475   -8.4009   -8.3087   -8.2044   -7.6772   -7.6011
          -6.9585   -6.9449   -6.8914   -6.2788   -6.2353   -6.0332   -4.5012   -4.0023    5.9988    7.8063
   11.4141   11.5438   16.4297   17.2320   17.7871   18.1581   23.3915
 180  1  -11.3459   -9.8831   -9.3281   -9.1990   -8.4597   -8.3138   -8.1824   -7.7055   -7.6540   -7.5641
          -7.1199   -6.6932   -6.6457   -6.4892   -6.2618   -5.4782   -4.7916   -3.5003    6.7418    7.7430
    7.9805   12.5146   13.3402   14.0931   18.6992   19.9635   22.1754
 181  1  -10.4703   -9.6870   -9.4043   -9.1064   -8.6596   -8.4252   -8.4043   -7.8344   -7.4545   -7.4509
          -6.7466   -6.7459   -5.9873   -5.9028   -5.7438   -5.3054   -3.6004   -2.5752    4.6916    7.4445
    8.2736    9.2183    9.2453   12.1480   14.8080   14.8253   21.7694
 182  1   -9.5992   -9.4881   -9.4049   -8.9473   -8.9172   -8.4984   -8.1611   -7.7115   -7.6305   -7.1309
          -6.5924   -6.5644   -6.4916   -5.4022   -5.3956   -3.7290   -1.2111   -0.5863    2.4552    2.4689
    7.1638    7.7143    8.4730    8.8411   11.2726   12.2873   19.1021
 183  1   -9.7011   -9.3928   -9.2715   -9.0762   -8.5536   -8.5277   -8.0045   -7.8269   -7.1512   -6.9793
          -6.8642   -6.2886   -5.8732   -5.8581   -5.5232   -1.4943   -1.4836    0.8972    1.8213    2.4910
    3.3109    5.0929    6.8959    7.8831   12.2703   14.9272   15.5523
 184  1   -9.5992   -9.4881   -9.4049   -8.9473   -8.9172   -8.4984   -8.1611   -7.7115   -7.6305   -7.1309
          -6.5924   -6.5644   -6.4916   -5.4022   -5.3956   -3.7290   -1.2111   -0.5863    2.4552    2.4689
    7.1638    7.7143    8.4730    8.8411   11.2726   12.2873   19.1021
 185  1  -10.4703   -9.6870   -9.4043   -9.1064   -8.6596   -8.4252   -8.4043   -7.8344   -7.4545   -7.4509
          -6.7466   -6.7459   -5.9873   -5.9028   -5.7438   -5.3054   -3.6004   -2.5752    4.6916    7.4445
    8.2736    9.2183    9.2453   12.1480   14.8080   14.8253   21.7694
 186  1  -11.6466   -9.7114   -9.6089   -8.7632   -8.5475   -8.4009   -8.3087   -8.2044   -7.6772   -7.6011
          -6.9585   -6.9449   -6.8914   -6.2788   -6.2353   -6.0332   -4.5012   -4.0023    5.9988    7.8063
   11.4141   11.5438   16.4297   17.2320   17.7871   18.1581   23.3915
 187  1  -12.4305  -10.3581  -10.2901   -8.1971   -8.1521   -8.0787   -7.8661   -7.8462   -7.8332   -7.8033
          -7.5846   -7.5740   -6.7485   -6.5136   -6.5017   -5.5694   -5.1645   -5.0994    5.1152    7.0801
   15.3055   16.9832   18.8495   20.5858   21.2629   22.0455   23.2859
 188  1  -12.4318  -10.3988  -10.2471   -8.2035   -8.1516   -8.0818   -7.9791   -7.8752   -7.8595   -7.6489
          -7.5979   -7.5172   -6.6732   -6.5631   -6.2854   -5.7085   -5.6630   -4.7365    5.2200    6.9763
   15.1460   17.1640   19.6036   20.0184   20.5528   22.5927   23.2670
 189  1  -11.6466   -9.7114   -9.6089   -8.7632   -8.5475   -8.4009   -8.3087   -8.2044   -7.6772   -7.6011
          -6.9585   -6.9449   -6.8914   -6.2788   -6.2353   -6.0332   -4.5012   -4.0023    5.9988    7.8063
   11.4141   11.5438   16.4297   17.2320   17.7871   18.1581   23.3915
 190  1  -10.3973   -9.5943   -9.3840   -9.3680   -8.5732   -8.5317   -8.3453   -7.8945   -7.5216   -7.2837
          -6.8842   -6.7831   -6.0099   -5.9023   -5.6254   -5.2868   -3.1503   -2.9057    4.6721    6.4968
    8.3860   10.0332   10.0772   11.3394   13.9122   15.8217   21.4537
 191  1  -10.0104   -9.7197   -9.7156   -9.6845   -8.5687   -8.3764   -8.0476   -7.4265   -7.3103   -7.2095
          -6.2143   -5.8867   -5.7661   -5.5263   -5.1818   -3.5998   -0.9938   -0.7386   -0.3423    3.1623
    4.1329    7.5091    9.6648   12.1623   12.5358   14.9772   17.4113
 192  1  -10.0422   -9.9036   -9.7238   -9.4672   -8.6874   -8.3039   -7.6841   -7.6663   -7.4007   -7.1188
          -6.1367   -5.9070   -5.7943   -5.5395   -5.2227   -3.6579   -1.6404   -0.3947    0.0370    3.3650
    3.8334    7.6871   10.2425   11.1371   13.1954   13.8523   18.3442
 193  1  -10.4108  -10.1201   -9.8023   -9.5419   -8.4999   -8.0203   -7.8303   -7.6418   -7.6069   -7.2253
          -5.8503   -5.8213   -5.7400   -5.6387   -5.4626   -5.3307   -3.6969   -1.8797    1.8114    5.6394
    6.4036    9.6462    9.9005   10.4289   16.5144   17.5333   19.5788
 194  1  -11.3459   -9.8831   -9.3281   -9.1990   -8.4597   -8.3138   -8.1824   -7.7055   -7.6540   -7.5641
          -7.1199   -6.6932   -6.6457   -6.4892   -6.2618   -5.4782   -4.7916   -3.5003    6.7418    7.7430
    7.9805   12.5146   13.3402   14.0931   18.6992   19.9635   22.1754
 195  1  -12.4318  -10.3988  -10.2471   -8.2035   -8.1516   -8.0818   -7.9791   -7.8752   -7.8595   -7.6489
          -7.5979   -7.5172   -6.6732   -6.5631   -6.2854   -5.7085   -5.6630   -4.7365    5.2200    6.9763
   15.1460   17.1640   19.6036   20.0184   20.5528   22.5927   23.2670
 196  1  -12.8472  -10.7886  -10.6717   -8.0268   -8.0105   -8.0105   -7.8972   -7.8972   -7.8378   -7.8378
          -7.4294   -6.8676   -6.5648   -6.5648   -6.0710   -6.0710   -5.8876   -5.8876    4.7529    6.6115
   20.0530   20.0530   20.4547   20.4547   23.5287   23.6038   23.6038
 197  1  -12.4305  -10.3581  -10.2901   -8.1971   -8.1521   -8.0787   -7.8661   -7.8462   -7.8332   -7.8033
          -7.5846   -7.5740   -6.7485   -6.5136   -6.5017   -5.5694   -5.1645   -5.0994    5.1152    7.0801
   15.3055   16.9832   18.8495   20.5858   21.2629   22.0455   23.2859
 198  1  -11.3134   -9.8108   -9.4959   -9.0762   -8.5288   -8.4762   -8.1057   -7.6724   -7.6199   -7.5501
          -7.1668   -6.7505   -6.7192   -6.6391   -6.2059   -5.3756   -4.0630   -3.9760    5.9619    7.6025
    8.9781   13.0920   13.2627   13.3861   19.1157   19.6150   21.9879
 199  1  -10.2648  -10.0744   -9.7702   -9.7416   -8.4157   -8.2556   -8.0344   -7.4617   -7.4281   -7.3870
          -6.0229   -5.8386   -5.8027   -5.6111   -5.3722   -5.2502   -2.7934   -2.4923    1.7698    5.2195
    6.4388    8.6912   10.4010   11.6495   16.5776   17.4960   18.7915
 200  1  -10.2825  -10.0730   -9.9902   -9.8929   -8.4314   -8.3331   -7.6098   -7.5132   -7.3980   -7.1381
          -5.4569   -5.3670   -5.3515   -5.1232   -5.0974   -2.7197   -2.5532   -1.8207    0.7057    1.3436
    2.7370    9.2374    9.3023   14.1782   15.5856   15.6052   16.5713
 201  1  -10.0422   -9.9036   -9.7238   -9.4672   -8.6874   -8.3039   -7.6841   -7.6663   -7.4007   -7.1188
          -6.1367   -5.9070   -5.7943   -5.5395   -5.2227   -3.6579   -1.6404   -0.3947    0.0370    3.3650
    3.8334    7.6871   10.2425   11.1371   13.1954   13.8523   18.3442
 202  1  -10.4703   -9.6870   -9.4043   -9.1064   -8.6596   -8.4252   -8.4043   -7.8344   -7.4545   -7.4509
          -6.7466   -6.7459   -5.9873   -5.9028   -5.7438   -5.3054   -3.6004   -2.5752    4.6916    7.4445
    8.2736    9.2183    9.2453   12.1480   14.8080   14.8253   21.7694
 203  1  -11.6466   -9.7114   -9.6089   -8.7632   -8.5475   -8.4009   -8.3087   -8.2044   -7.6772   -7.6011
          -6.9585   -6.9449   -6.8914   -6.2788   -6.2353   -6.0332   -4.5012   -4.0023    5.9988    7.8063
   11.4141   11.5438   16.4297   17.2320   17.7871   18.1581   23.3915
 204  1  -12.4305  -10.3581  -10.2901   -8.1971   -8.1521   -8.0787   -7.8661   -7.8462   -7.8332   -7.8033
          -7.5846   -7.5740   -6.7485   -6.5136   -6.5017   -5.5694   -5.1645   -5.0994    5.1152    7.0801
   15.3055   16.9832   18.8495   20.5858   21.2629   22.0455   23.2859
[...]
          -6.7541   -6.6203   -5.9277   -5.6334   -5.4181   -5.4153   -5.3662    0.4442    2.0985    6.0325
    6.2284    9.9337   10.9947   13.6159   16.5526   17.0546   19.2280
1900  1  -10.5654  -10.0143   -9.6956   -9.4768   -9.0873   -7.9826   -7.9495   -7.1424   -6.9774   -6.3595
          -6.3215   -6.2808   -5.7849   -5.5760   -5.5258   -5.3006   -5.2622    0.9104    1.8233    2.8714
    5.0342    9.9578   12.3235   12.4858   13.0692   18.7487   20.0171
1901  1  -10.2885   -9.6368   -9.5390   -9.3930   -9.2031   -8.2118   -7.7960   -7.4958   -7.4213   -6.6845
          -6.2859   -5.9689   -5.7045   -5.4477   -5.2353   -3.4204   -3.2548    0.1796    0.7557    3.0195
    6.1094    7.0367    8.7418    9.4754   11.7246   16.8812   18.0174
1902  1   -9.5795   -9.1781   -9.1781   -8.8563   -8.8563   -8.6327   -8.1480   -8.1480   -7.5367   -7.2114
          -6.5377   -6.5377   -5.5453   -5.4186   -5.4186   -0.5915   -0.5915   -0.3861   -0.3453    3.2670
    3.2670    7.0240    7.0240   10.4178   10.4178   11.8486   14.4132
1903  1   -9.5795   -9.1781   -9.1781   -8.8563   -8.8563   -8.6327   -8.1480   -8.1480   -7.5367   -7.2114
          -6.5377   -6.5377   -5.5453   -5.4186   -5.4186   -0.5915   -0.5915   -0.3861   -0.3453    3.2670
    3.2670    7.0240    7.0240   10.4178   10.4178   11.8486   14.4132
1904  1  -10.2885   -9.6368   -9.5390   -9.3930   -9.2031   -8.2118   -7.7960   -7.4958   -7.4213   -6.6845
          -6.2859   -5.9689   -5.7045   -5.4477   -5.2353   -3.4204   -3.2548    0.1796    0.7557    3.0195
    6.1094    7.0367    8.7418    9.4754   11.7246   16.8812   18.0174
1905  1  -10.3431  -10.0470   -9.2669   -9.1374   -8.8130   -8.0501   -8.0195   -7.9455   -7.7249   -7.5540
          -6.7541   -6.6203   -5.9277   -5.6334   -5.4181   -5.4153   -5.3662    0.4442    2.0985    6.0325
    6.2284    9.9337   10.9947   13.6159   16.5526   17.0546   19.2280
1906  1  -10.8364  -10.6774   -9.5559   -9.0825   -8.5992   -8.1623   -7.7422   -7.6677   -7.6378   -7.3098
          -7.0087   -6.8346   -6.8281   -6.5853   -6.0338   -5.7855   -5.5785   -0.3595    0.4302    9.2150
    9.3313   14.8269   15.3590   15.3639   17.8274   17.9238   22.0192
1907  1  -10.9617  -10.9617   -9.5739   -8.7054   -8.7054   -8.6241   -7.6973   -7.6973   -7.5449   -7.3102
          -7.3102   -7.2095   -6.6920   -6.6920   -6.0123   -6.0123   -5.5430   -0.3957   -0.3539   11.8446
   13.1693   13.1693   14.4215   16.9484   16.9484   21.1253   21.1253
1908  1  -10.8364  -10.6774   -9.5559   -9.0825   -8.5992   -8.1623   -7.7422   -7.6677   -7.6378   -7.3098
          -7.0087   -6.8346   -6.8281   -6.5853   -6.0338   -5.7855   -5.5785   -0.3595    0.4302    9.2150
    9.3313   14.8269   15.3590   15.3639   17.8274   17.9238   22.0192
1909  1  -10.3431  -10.0470   -9.2669   -9.1374   -8.8130   -8.0501   -8.0195   -7.9455   -7.7249   -7.5540
          -6.7541   -6.6203   -5.9277   -5.6334   -5.4181   -5.4153   -5.3662    0.4442    2.0985    6.0325
    6.2284    9.9337   10.9947   13.6159   16.5526   17.0546   19.2280
1910  1   -9.6769   -9.6769   -9.1958   -8.5690   -8.5690   -8.4421   -8.4364   -8.0716   -8.0716   -6.9917
          -6.9917   -6.6937   -5.5635   -5.5635   -5.0938   -3.3207   -3.3207    1.9891    3.6770    3.6844
    3.9621    3.9621    7.8923   12.3076   12.3076   15.0574   15.0574
1911  1   -9.5795   -9.1781   -9.1781   -8.8563   -8.8563   -8.6327   -8.1480   -8.1480   -7.5367   -7.2114
          -6.5377   -6.5377   -5.5453   -5.4186   -5.4186   -0.5915   -0.5915   -0.3861   -0.3453    3.2670
    3.2670    7.0240    7.0240   10.4178   10.4178   11.8486   14.4132
1912  1   -9.6769   -9.6769   -9.1958   -8.5690   -8.5690   -8.4421   -8.4364   -8.0716   -8.0716   -6.9917
          -6.9917   -6.6937   -5.5635   -5.5635   -5.0938   -3.3207   -3.3207    1.9891    3.6770    3.6844
    3.9621    3.9621    7.8923   12.3076   12.3076   15.0574   15.0574
1913  1  -10.3431  -10.0470   -9.2669   -9.1374   -8.8130   -8.0501   -8.0195   -7.9455   -7.7249   -7.5540
          -6.7541   -6.6203   -5.9277   -5.6334   -5.4181   -5.4153   -5.3662    0.4442    2.0985    6.0325
    6.2284    9.9337   10.9947   13.6159   16.5526   17.0546   19.2280
1914  1  -10.9617  -10.9617   -9.5739   -8.7054   -8.7054   -8.6241   -7.6973   -7.6973   -7.5449   -7.3102
          -7.3102   -7.2095   -6.6920   -6.6920   -6.0123   -6.0123   -5.5430   -0.3957   -0.3539   11.8446
   13.1693   13.1693   14.4215   16.9484   16.9484   21.1253   21.1253
1915  1  -11.6512  -11.6457  -10.2026   -8.5451   -8.4029   -8.2628   -7.7623   -7.6723   -7.5990   -7.5619
          -7.4996   -6.9770   -6.9476   -6.6271   -6.2937   -6.2441   -5.4662   -2.2228   -0.5667   15.9390
   16.5616   16.8048   17.6646   17.7236   19.1662   22.0446   23.4432
1916  1  -11.6512  -11.6457  -10.2026   -8.5451   -8.4029   -8.2628   -7.7623   -7.6723   -7.5990   -7.5619
          -7.4996   -6.9770   -6.9476   -6.6271   -6.2937   -6.2441   -5.4662   -2.2228   -0.5667   15.9390
   16.5616   16.8048   17.6646   17.7236   19.1662   22.0446   23.4432
1917  1  -10.9617  -10.9617   -9.5739   -8.7054   -8.7054   -8.6241   -7.6973   -7.6973   -7.5449   -7.3102
          -7.3102   -7.2095   -6.6920   -6.6920   -6.0123   -6.0123   -5.5430   -0.3957   -0.3539   11.8446
   13.1693   13.1693   14.4215   16.9484   16.9484   21.1253   21.1253
1918  1  -10.3431  -10.0470   -9.2669   -9.1374   -8.8130   -8.0501   -8.0195   -7.9455   -7.7249   -7.5540
          -6.7541   -6.6203   -5.9277   -5.6334   -5.4181   -5.4153   -5.3662    0.4442    2.0985    6.0325
    6.2284    9.9337   10.9947   13.6159   16.5526   17.0546   19.2280
1919  1  -10.2885   -9.6368   -9.5390   -9.3930   -9.2031   -8.2118   -7.7960   -7.4958   -7.4213   -6.6845
          -6.2859   -5.9689   -5.7045   -5.4477   -5.2353   -3.4204   -3.2548    0.1796    0.7557    3.0195
    6.1094    7.0367    8.7418    9.4754   11.7246   16.8812   18.0174
1920  1  -10.2885   -9.6368   -9.5390   -9.3930   -9.2031   -8.2118   -7.7960   -7.4958   -7.4213   -6.6845
          -6.2859   -5.9689   -5.7045   -5.4477   -5.2353   -3.4204   -3.2548    0.1796    0.7557    3.0195
    6.1094    7.0367    8.7418    9.4754   11.7246   16.8812   18.0174
1921  1  -10.5654  -10.0143   -9.6956   -9.4768   -9.0873   -7.9826   -7.9495   -7.1424   -6.9774   -6.3595
          -6.3215   -6.2808   -5.7849   -5.5760   -5.5258   -5.3006   -5.2622    0.9104    1.8233    2.8714
    5.0342    9.9578   12.3235   12.4858   13.0692   18.7487   20.0171
1922  1  -10.8364  -10.6774   -9.5559   -9.0825   -8.5992   -8.1623   -7.7422   -7.6677   -7.6378   -7.3098
          -7.0087   -6.8346   -6.8281   -6.5853   -6.0338   -5.7855   -5.5785   -0.3595    0.4302    9.2150
    9.3313   14.8269   15.3590   15.3639   17.8274   17.9238   22.0192
1923  1  -11.6512  -11.6457  -10.2026   -8.5451   -8.4029   -8.2628   -7.7623   -7.6723   -7.5990   -7.5619
          -7.4996   -6.9770   -6.9476   -6.6271   -6.2937   -6.2441   -5.4662   -2.2228   -0.5667   15.9390
   16.5616   16.8048   17.6646   17.7236   19.1662   22.0446   23.4432
1924  1  -12.0451  -12.0451  -10.5768   -8.2134   -8.2134   -8.0508   -8.0508   -7.7772   -7.7772   -7.7772
          -7.7772   -6.6170   -6.6170   -6.6170   -6.6170   -5.4120   -5.4120   -3.9073   -0.5918   16.7810
   16.7810   19.1257   19.1257   22.4679   22.4679   22.4679   22.4679
1925  1  -11.6512  -11.6457  -10.2026   -8.5451   -8.4029   -8.2628   -7.7623   -7.6723   -7.5990   -7.5619
          -7.4996   -6.9770   -6.9476   -6.6271   -6.2937   -6.2441   -5.4662   -2.2228   -0.5667   15.9390
   16.5616   16.8048   17.6646   17.7236   19.1662   22.0446   23.4432
1926  1  -10.8364  -10.6774   -9.5559   -9.0825   -8.5992   -8.1623   -7.7422   -7.6677   -7.6378   -7.3098
          -7.0087   -6.8346   -6.8281   -6.5853   -6.0338   -5.7855   -5.5785   -0.3595    0.4302    9.2150
    9.3313   14.8269   15.3590   15.3639   17.8274   17.9238   22.0192
1927  1  -10.5654  -10.0143   -9.6956   -9.4768   -9.0873   -7.9826   -7.9495   -7.1424   -6.9774   -6.3595
          -6.3215   -6.2808   -5.7849   -5.5760   -5.5258   -5.3006   -5.2622    0.9104    1.8233    2.8714
    5.0342    9.9578   12.3235   12.4858   13.0692   18.7487   20.0171
1928  1  -10.5813   -9.8865   -9.8865   -9.4692   -9.4692   -8.0617   -8.0574   -6.7665   -6.7665   -6.1825
          -6.1825   -5.4135   -5.4007   -5.2587   -5.2587   -3.8993   -2.1585   -2.1585   -0.5791    4.4746
    4.4746    8.2239    8.2239   11.3653   11.3653   19.1183   19.1302
1929  1  -10.2885   -9.6368   -9.5390   -9.3930   -9.2031   -8.2118   -7.7960   -7.4958   -7.4213   -6.6845
          -6.2859   -5.9689   -5.7045   -5.4477   -5.2353   -3.4204   -3.2548    0.1796    0.7557    3.0195
    6.1094    7.0367    8.7418    9.4754   11.7246   16.8812   18.0174
1930  1  -10.3431  -10.0470   -9.2669   -9.1374   -8.8130   -8.0501   -8.0195   -7.9455   -7.7249   -7.5540
          -6.7541   -6.6203   -5.9277   -5.6334   -5.4181   -5.4153   -5.3662    0.4442    2.0985    6.0325
    6.2284    9.9337   10.9947   13.6159   16.5526   17.0546   19.2280
1931  1  -10.9617  -10.9617   -9.5739   -8.7054   -8.7054   -8.6241   -7.6973   -7.6973   -7.5449   -7.3102
          -7.3102   -7.2095   -6.6920   -6.6920   -6.0123   -6.0123   -5.5430   -0.3957   -0.3539   11.8446
   13.1693   13.1693   14.4215   16.9484   16.9484   21.1253   21.1253
1932  1  -11.6512  -11.6457  -10.2026   -8.5451   -8.4029   -8.2628   -7.7623   -7.6723   -7.5990   -7.5619
          -7.4996   -6.9770   -6.9476   -6.6271   -6.2937   -6.2441   -5.4662   -2.2228   -0.5667   15.9390
   16.5616   16.8048   17.6646   17.7236   19.1662   22.0446   23.4432
1933  1  -11.6512  -11.6457  -10.2026   -8.5451   -8.4029   -8.2628   -7.7623   -7.6723   -7.5990   -7.5619
          -7.4996   -6.9770   -6.9476   -6.6271   -6.2937   -6.2441   -5.4662   -2.2228   -0.5667   15.9390
   16.5616   16.8048   17.6646   17.7236   19.1662   22.0446   23.4432
1934  1  -10.9617  -10.9617   -9.5739   -8.7054   -8.7054   -8.6241   -7.6973   -7.6973   -7.5449   -7.3102
          -7.3102   -7.2095   -6.6920   -6.6920   -6.0123   -6.0123   -5.5430   -0.3957   -0.3539   11.8446
   13.1693   13.1693   14.4215   16.9484   16.9484   21.1253   21.1253
1935  1  -10.3431  -10.0470   -9.2669   -9.1374   -8.8130   -8.0501   -8.0195   -7.9455   -7.7249   -7.5540
          -6.7541   -6.6203   -5.9277   -5.6334   -5.4181   -5.4153   -5.3662    0.4442    2.0985    6.0325
    6.2284    9.9337   10.9947   13.6159   16.5526   17.0546   19.2280
1936  1  -10.2885   -9.6368   -9.5390   -9.3930   -9.2031   -8.2118   -7.7960   -7.4958   -7.4213   -6.6845
          -6.2859   -5.9689   -5.7045   -5.4477   -5.2353   -3.4204   -3.2548    0.1796    0.7557    3.0195
    6.1094    7.0367    8.7418    9.4754   11.7246   16.8812   18.0174
1937  1   -9.5795   -9.1781   -9.1781   -8.8563   -8.8563   -8.6327   -8.1480   -8.1480   -7.5367   -7.2114
          -6.5377   -6.5377   -5.5453   -5.4186   -5.4186   -0.5915   -0.5915   -0.3861   -0.3453    3.2670
    3.2670    7.0240    7.0240   10.4178   10.4178   11.8486   14.4132
1938  1   -9.6769   -9.6769   -9.1958   -8.5690   -8.5690   -8.4421   -8.4364   -8.0716   -8.0716   -6.9917
          -6.9917   -6.6937   -5.5635   -5.5635   -5.0938   -3.3207   -3.3207    1.9891    3.6770    3.6844
    3.9621    3.9621    7.8923   12.3076   12.3076   15.0574   15.0574
1939  1  -10.3431  -10.0470   -9.2669   -9.1374   -8.8130   -8.0501   -8.0195   -7.9455   -7.7249   -7.5540
          -6.7541   -6.6203   -5.9277   -5.6334   -5.4181   -5.4153   -5.3662    0.4442    2.0985    6.0325
    6.2284    9.9337   10.9947   13.6159   16.5526   17.0546   19.2280
1940  1  -10.8364  -10.6774   -9.5559   -9.0825   -8.5992   -8.1623   -7.7422   -7.6677   -7.6378   -7.3098
          -7.0087   -6.8346   -6.8281   -6.5853   -6.0338   -5.7855   -5.5785   -0.3595    0.4302    9.2150
    9.3313   14.8269   15.3590   15.3639   17.8274   17.9238   22.0192
1941  1  -10.9617  -10.9617   -9.5739   -8.7054   -8.7054   -8.6241   -7.6973   -7.6973   -7.5449   -7.3102
          -7.3102   -7.2095   -6.6920   -6.6920   -6.0123   -6.0123   -5.5430   -0.3957   -0.3539   11.8446
   13.1693   13.1693   14.4215   16.9484   16.9484   21.1253   21.1253
1942  1  -10.8364  -10.6774   -9.5559   -9.0825   -8.5992   -8.1623   -7.7422   -7.6677   -7.6378   -7.3098
          -7.0087   -6.8346   -6.8281   -6.5853   -6.0338   -5.7855   -5.5785   -0.3595    0.4302    9.2150
    9.3313   14.8269   15.3590   15.3639   17.8274   17.9238   22.0192
1943  1  -10.3431  -10.0470   -9.2669   -9.1374   -8.8130   -8.0501   -8.0195   -7.9455   -7.7249   -7.5540
          -6.7541   -6.6203   -5.9277   -5.6334   -5.4181   -5.4153   -5.3662    0.4442    2.0985    6.0325
    6.2284    9.9337   10.9947   13.6159   16.5526   17.0546   19.2280
1944  1   -9.6769   -9.6769   -9.1958   -8.5690   -8.5690   -8.4421   -8.4364   -8.0716   -8.0716   -6.9917
          -6.9917   -6.6937   -5.5635   -5.5635   -5.0938   -3.3207   -3.3207    1.9891    3.6770    3.6844
    3.9621    3.9621    7.8923   12.3076   12.3076   15.0574   15.0574
1945  1   -9.5795   -9.1781   -9.1781   -8.8563   -8.8563   -8.6327   -8.1480   -8.1480   -7.5367   -7.2114
          -6.5377   -6.5377   -5.5453   -5.4186   -5.4186   -0.5915   -0.5915   -0.3861   -0.3453    3.2670
    3.2670    7.0240    7.0240   10.4178   10.4178   11.8486   14.4132
1946  1   -9.5795   -9.1781   -9.1781   -8.8563   -8.8563   -8.6327   -8.1480   -8.1480   -7.5367   -7.2114
          -6.5377   -6.5377   -5.5453   -5.4186   -5.4186   -0.5915   -0.5915   -0.3861   -0.3453    3.2670
    3.2670    7.0240    7.0240   10.4178   10.4178   11.8486   14.4132
1947  1  -10.2885   -9.6368   -9.5390   -9.3930   -9.2031   -8.2118   -7.7960   -7.4958   -7.4213   -6.6845
          -6.2859   -5.9689   -5.7045   -5.4477   -5.2353   -3.4204   -3.2548    0.1796    0.7557    3.0195
    6.1094    7.0367    8.7418    9.4754   11.7246   16.8812   18.0174
1948  1  -10.5654  -10.0143   -9.6956   -9.4768   -9.0873   -7.9826   -7.9495   -7.1424   -6.9774   -6.3595
          -6.3215   -6.2808   -5.7849   -5.5760   -5.5258   -5.3006   -5.2622    0.9104    1.8233    2.8714
    5.0342    9.9578   12.3235   12.4858   13.0692   18.7487   20.0171
1949  1  -10.3431  -10.0470   -9.2669   -9.1374   -8.8130   -8.0501   -8.0195   -7.9455   -7.7249   -7.5540
          -6.7541   -6.6203   -5.9277   -5.6334   -5.4181   -5.4153   -5.3662    0.4442    2.0985    6.0325
    6.2284    9.9337   10.9947   13.6159   16.5526   17.0546   19.2280
1950  1  -10.3431  -10.0470   -9.2669   -9.1374   -8.8130   -8.0501   -8.0195   -7.9455   -7.7249   -7.5540
          -6.7541   -6.6203   -5.9277   -5.6334   -5.4181   -5.4153   -5.3662    0.4442    2.0985    6.0325
    6.2284    9.9337   10.9947   13.6159   16.5526   17.0546   19.2280
1951  1  -10.5654  -10.0143   -9.6956   -9.4768   -9.0873   -7.9826   -7.9495   -7.1424   -6.9774   -6.3595
          -6.3215   -6.2808   -5.7849   -5.5760   -5.5258   -5.3006   -5.2622    0.9104    1.8233    2.8714
    5.0342    9.9578   12.3235   12.4858   13.0692   18.7487   20.0171
1952  1  -10.2885   -9.6368   -9.5390   -9.3930   -9.2031   -8.2118   -7.7960   -7.4958   -7.4213   -6.6845
          -6.2859   -5.9689   -5.7045   -5.4477   -5.2353   -3.4204   -3.2548    0.1796    0.7557    3.0195
    6.1094    7.0367    8.7418    9.4754   11.7246   16.8812   18.0174
1953  1  -10.2885   -9.6368   -9.5390   -9.3930   -9.2031   -8.2118   -7.7960   -7.4958   -7.4213   -6.6845
          -6.2859   -5.9689   -5.7045   -5.4477   -5.2353   -3.4204   -3.2548    0.1796    0.7557    3.0195
    6.1094    7.0367    8.7418    9.4754   11.7246   16.8812   18.0174
1954  1   -9.6769   -9.6769   -9.1958   -8.5690   -8.5690   -8.4421   -8.4364   -8.0716   -8.0716   -6.9917
          -6.9917   -6.6937   -5.5635   -5.5635   -5.0938   -3.3207   -3.3207    1.9891    3.6770    3.6844
    3.9621    3.9621    7.8923   12.3076   12.3076   15.0574   15.0574
1955  1  -10.2885   -9.6368   -9.5390   -9.3930   -9.2031   -8.2118   -7.7960   -7.4958   -7.4213   -6.6845
          -6.2859   -5.9689   -5.7045   -5.4477   -5.2353   -3.4204   -3.2548    0.1796    0.7557    3.0195
    6.1094    7.0367    8.7418    9.4754   11.7246   16.8812   18.0174
1956  1  -10.5813   -9.8865   -9.8865   -9.4692   -9.4692   -8.0617   -8.0574   -6.7665   -6.7665   -6.1825
          -6.1825   -5.4135   -5.4007   -5.2587   -5.2587   -3.8993   -2.1585   -2.1585   -0.5791    4.4746
    4.4746    8.2239    8.2239   11.3653   11.3653   19.1183   19.1302
1957  1  -10.2885   -9.6368   -9.5390   -9.3930   -9.2031   -8.2118   -7.7960   -7.4958   -7.4213   -6.6845
          -6.2859   -5.9689   -5.7045   -5.4477   -5.2353   -3.4204   -3.2548    0.1796    0.7557    3.0195
    6.1094    7.0367    8.7418    9.4754   11.7246   16.8812   18.0174
1958  1   -9.6769   -9.6769   -9.1958   -8.5690   -8.5690   -8.4421   -8.4364   -8.0716   -8.0716   -6.9917
          -6.9917   -6.6937   -5.5635   -5.5635   -5.0938   -3.3207   -3.3207    1.9891    3.6770    3.6844
    3.9621    3.9621    7.8923   12.3076   12.3076   15.0574   15.0574
1959  1  -10.2885   -9.6368   -9.5390   -9.3930   -9.2031   -8.2118   -7.7960   -7.4958   -7.4213   -6.6845
          -6.2859   -5.9689   -5.7045   -5.4477   -5.2353   -3.4204   -3.2548    0.1796    0.7557    3.0195
    6.1094    7.0367    8.7418    9.4754   11.7246   16.8812   18.0174
1960  1  -10.5813   -9.8865   -9.8865   -9.4692   -9.4692   -8.0617   -8.0574   -6.7665   -6.7665   -6.1825
          -6.1825   -5.4135   -5.4007   -5.2587   -5.2587   -3.8993   -2.1585   -2.1585   -0.5791    4.4746
    4.4746    8.2239    8.2239   11.3653   11.3653   19.1183   19.1302
siesta: Fermi energy =      -3.409239 eV

siesta: Program's energy decomposition (eV):
siesta: Ebs     =      -249.759097
siesta: Eions   =      3513.674752
siesta: Ena     =       174.746452
siesta: Ekin    =      1909.503037
siesta: Enl     =      -884.289286
siesta: Eso     =         0.000000
siesta: Edftu   =         0.000000
siesta: DEna    =        23.347795
siesta: DUscf   =         1.144817
siesta: DUext   =         0.000000
siesta: Exc     =      -424.712675
siesta: eta*DQ  =         0.000000
siesta: Emadel  =         0.000000
siesta: Emeta   =         0.000000
siesta: Emolmec =         0.000000
siesta: Ekinion =         0.000000
siesta: Eharris =     -2713.934613
siesta: Etot    =     -2713.934613
siesta: FreeEng =     -2713.934941

siesta: Final energy (eV):
siesta:  Band Struct. =    -249.759097
siesta:       Kinetic =    1909.503037
siesta:       Hartree =     308.977978
siesta:       Edftu   =       0.000000
siesta:       Eso     =       0.000000
siesta:    Ext. field =       0.000000
siesta:   Exch.-corr. =    -424.712675
siesta:  Ion-electron =   -2221.400832
siesta:       Ion-ion =   -2286.302121
siesta:       Ekinion =       0.000000
siesta:         Total =   -2713.934613
siesta:         Fermi =      -3.409239

siesta: Stress tensor (static) (eV/Ang**3):
siesta:     0.015128   -0.000000    0.000000
siesta:    -0.000000    0.015128    0.000000
siesta:     0.000000    0.000000    0.031662

siesta: Cell volume =         52.983633 Ang**3

siesta: Pressure (static):
siesta:                Solid            Molecule  Units
siesta:          -0.00022479         -0.00022479  Ry/Bohr**3
siesta:          -0.02063906         -0.02063906  eV/Ang**3
siesta:         -33.06778375        -33.06777742  kBar
(Free)E+ p_basis*V_orbitals  =       -2711.856170
(Free)Eharris+ p_basis*V_orbitals  =       -2711.856170

cite: Please see "elec_au_111_abc.bib" for an exhaustive BiBTeX file.
cite: Please clearly indicate Siesta version in published work: v4.1-b4-351
cite: This calculation has made use of the following articles
cite: which are encouraged to be cited in a published work.
        Primary SIESTA paper
          DOI: www.doi.org/10.1088/0953-8984/14/11/302

>> End of run:  23-JAN-2021   1:14:05
Job completed
