Siesta Version  : 4.1.5
Architecture    : x86_64-intel
Compiler version: ifort (IFORT) 19.0.3.199 20190206
Compiler flags  : mpiifort -O2 -g -fPIC -fp-model source
PP flags        : -DMPI -DFC_HAVE_ABORT -DHAVE_LIBINT
Libraries       :  -L/public/software/intel/2019/mkl/lib/intel64 -lmkl_intel_lp64 -lmkl_core -llmkl_sequential -lmkl_scalapack_lp64 -lmkl_blacs_intelmpi_lp64 /public/home/xmqin/MathLibs/libint/1.1.5/intel/lib/libderiv.a /public/home/xmqin/MathLibs/libint/1.1.5/intel/lib/libint.a -lpthread -lstdc++
PARALLEL version

* Running on 12 nodes in parallel
>> Start of run:   7-FEB-2024  13:38:42

                           ***********************       
                           *  WELCOME TO SIESTA  *       
                           ***********************       

reinit: Reading from standard input
reinit: Dumped input in INPUT_TMP.22124
************************** Dump of input data file ****************************
SystemName      Graphene
SystemLabel     Graphene
NumberOfSpecies	        1
NumberOfAtoms           2
%block ChemicalSpeciesLabel
  1  6 C
%endblock ChemicalSpeciesLabel
LatticeConstant      1.00 Ang
%block LatticeVectors
     2.4600000000000000    0.0000000000000000    0.0000000000000000
    -1.2300000000000000    2.1304224933097191    0.0000000000000000
     0.0000000000000000    0.0000000000000000   20.0000000000000000
%endblock LatticeVectors
AtomicCoordinatesFormat   Fractional
%block AtomicCoordinatesAndAtomicSpecies
  0.3333333333333357  0.6666666666666643  0.0000000000000000   1
  0.6666666666666643  0.3333333333333357  0.0000000000000000   1
%endblock AtomicCoordinatesAndAtomicSpecies
PAO.BasisSize DZP
%block PS.lmax
C  2
%endblock PS.lmax
xc.functional      GGA    # Default vaxc.authors         HSE    # Default value
xc.authors        HSE06    # Default value
ElectronicTemperature  25 meV
#DM.UseSaveDM            T
MeshCutoff              250. Ry     # Equivalent planewave cutoff for the grid
MaxSCFIterations        50         # Maximum number of SCF iterations per step
DM.MixingWeight         0.1         # New DM amount for next SCF cycle
DM.Tolerance            1.d-4       # Tolerance in maximum difference
                                    # between input and output DM
DM.NumberPulay          6          # Number of SCF steps between pulay mixing
# Eigenvalue problem: order-N or diagonalization
SolutionMethod          diagon      # OrderN or Diagon
%block kgrid_Monkhorst_Pack
   18  0  0  0.5
   0  18  0  0.5
   0  0   1 0.5
%endblock kgrid_Monkhorst_Pack
MD.TypeOfRun            cg          # Type of dynamics:
MD.NumCGsteps  0
#MD.VariableCell   .true.
MD.MaxForceTol  0.01 eV/Ang
#WriteMDXmol   .true.
WriteForces  .true.
WriteCoorStep
BandLinesScale ReciprocalLatticeVectors
%block BandLines
1  0.5  0.0  0.0
20 0.0  0.0  0.0
20 0.33333333 0.33333333 0.000
20 0.5  0.0  0.0
%endblock BandLines
HFX.MaximumNumberGaussians_S        5  # number of GTOs for s-type orbitals
HFX.MaximumNumberGaussians_P        4  # number of GTOs for p-type orbitals
HFX.MaximumNumberGaussians_D        4  # number of GTOs for d-type orbitals
HFX.SeparationExponents           0.140E+01
HFX.ToleranceFit                  0.100E-02
HFX.UseFittedNAOs                 T    # to use fitted CGTOs as new NAOs for all the DFT calculations
HFX.TruncateDM                    T    # density matrix screening
HFX.FarField                      T    # far field screening for HSE
HFX.FarFieldTolerance             0.100E-05
HFX.PairListTolerance             0.100E-05
HFX.SchwarzTolerance              0.100E-05
HFX.StoreERIsTolerance            0.100E-05
HFX.GaussianEPS                   0.100E-03
HFX.Dynamic_parallel              F   # dynamic parallel for ERIs
HFX.FragSize                      1000 # batched size of ERIs requested by each worker in a MPI communication
************************** End of input data file *****************************

reinit: -----------------------------------------------------------------------
reinit: System Name: Graphene
reinit: -----------------------------------------------------------------------
reinit: System Label: Graphene
reinit: -----------------------------------------------------------------------

initatom: Reading input for the pseudopotentials and atomic orbitals ----------
Species number:   1 Atomic number:    6 Label: C
 
Ground state valence configuration:   2s02  2p02
Reading pseudopotential information in formatted form from C.psf

Valence configuration for pseudopotential generation:
2s( 2.00) rc: 1.49
2p( 2.00) rc: 1.52
3d( 0.00) rc: 1.52
relmxkb: Read Max KB Ang. Momentum=    2 for species C

<basis_specs>
===============================================================================
C                    Z=   6    Mass=  12.010        Charge= 0.17977+309
Lmxo=1 Lmxkb= 2    BasisType=split      Semic=F
L=0  Nsemic=0  Cnfigmx=2
          i=1  nzeta=2  polorb=0  (2s)
            splnorm:   0.15000    
               vcte:    0.0000    
               rinn:    0.0000    
               qcoe:    0.0000    
               qyuk:    0.0000    
               qwid:   0.10000E-01
                rcs:    0.0000      0.0000    
            lambdas:    1.0000      1.0000    
L=1  Nsemic=0  Cnfigmx=2
          i=1  nzeta=2  polorb=1  (2p)
            splnorm:   0.15000    
               vcte:    0.0000    
               rinn:    0.0000    
               qcoe:    0.0000    
               qyuk:    0.0000    
               qwid:   0.10000E-01
                rcs:    0.0000      0.0000    
            lambdas:    1.0000      1.0000    
-------------------------------------------------------------------------------
L=0  Nkbl=1  erefs: 0.17977+309
L=1  Nkbl=1  erefs: 0.17977+309
L=2  Nkbl=1  erefs: 0.17977+309
===============================================================================
</basis_specs>

atom: Called for C                     (Z =   6)

read_vps: Pseudopotential generation method:
read_vps: ATM 3.2.2 Troullier-Martins                       
Valence charge for ps generation:    4.00000

read_vps: Pseudopotential includes a core correction:
read_vps: Pseudo-core for xc-correction

xc_check: Exchange-correlation functional:
xc_check: Hybrid Heyd-Scuseria-Ernzerhof 2006
 (JCP 125, 224106, 2006)
xc_check: WARNING: Pseudopotential generated with GGA PBE functional
V l=0 = -2*Zval/r beyond r=  1.4666
V l=1 = -2*Zval/r beyond r=  1.5038
V l=2 = -2*Zval/r beyond r=  1.5038
All V_l potentials equal beyond r=  1.5038
This should be close to max(r_c) in ps generation
All pots = -2*Zval/r beyond r=  1.5038

VLOCAL1: 99.0% of the norm of Vloc inside     19.196 Ry
VLOCAL1: 99.9% of the norm of Vloc inside     43.748 Ry
atom: Maximum radius for 4*pi*r*r*local-pseudopot. charge    1.81396
atom: Maximum radius for r*vlocal+2*Zval:    1.56123
GHOST: No ghost state for L =  0
GHOST: No ghost state for L =  1
GHOST: No ghost state for L =  2

KBgen: Kleinman-Bylander projectors: 
   l= 0   rc=  1.682861   el= -1.009802   Ekb=  5.530688   kbcos=  0.309203
   l= 1   rc=  1.682861   el= -0.388707   Ekb= -3.901042   kbcos= -0.358653
   l= 2   rc=  1.769164   el=  0.001971   Ekb= -0.965319   kbcos= -0.008918

KBgen: Total number of Kleinman-Bylander projectors:    9
atom: -------------------------------------------------------------------------

atom: SANKEY-TYPE ORBITALS:
atom: Selected multiple-zeta basis: split     

SPLIT: Orbitals with angular momentum L= 0

SPLIT: Basis orbitals for state 2s

SPLIT: PAO cut-off radius determined from an
SPLIT: energy shift=  0.020000 Ry

   izeta = 1
                 lambda =    1.000000
                     rc =    4.088342
                 energy =   -0.989106
                kinetic =    0.910778
    potential(screened) =   -1.899884
       potential(ionic) =   -5.496861

   izeta = 2
                 rmatch =    3.347176
              splitnorm =    0.150000
                 energy =   -0.834819
                kinetic =    1.378175
    potential(screened) =   -2.212994
       potential(ionic) =   -6.037557

SPLIT: Orbitals with angular momentum L= 1

SPLIT: Basis orbitals for state 2p

SPLIT: PAO cut-off radius determined from an
SPLIT: energy shift=  0.020000 Ry

   izeta = 1
                 lambda =    1.000000
                     rc =    4.870301
                 energy =   -0.368906
                kinetic =    2.525433
    potential(screened) =   -2.894339
       potential(ionic) =   -6.379903

   izeta = 2
                 rmatch =    3.475094
              splitnorm =    0.150000
                 energy =   -0.205960
                kinetic =    3.776072
    potential(screened) =   -3.982032
       potential(ionic) =   -7.825622

POLgen: Perturbative polarization orbital with L=  2

POLgen: Polarization orbital for state 2p

   izeta = 1
                     rc =    4.870301
                 energy =    1.296406
                kinetic =    2.643413
    potential(screened) =   -1.347008
       potential(ionic) =   -4.301419
atom: Total number of Sankey-type orbitals: 13

atm_pop: Valence configuration (for local Pseudopot. screening):
 2s( 2.00)                                                            
 2p( 2.00)                                                            
Vna: chval, zval:    4.00000   4.00000

Vna:  Cut-off radius for the neutral-atom potential:   4.870301
comcore: Pseudo-core radius Rcore=  1.791422

atom: _________________________________________________________________________

prinput: Basis input ----------------------------------------------------------

PAO.BasisType split     

%block ChemicalSpeciesLabel
    1    6 C                       # Species index, atomic number, species label
%endblock ChemicalSpeciesLabel

%block PAO.Basis                 # Define Basis set
C                     2                    # Species label, number of l-shells
 n=2   0   2                         # n, l, Nzeta 
   4.088      3.347   
   1.000      1.000   
 n=2   1   2 P   1                   # n, l, Nzeta, Polarization, NzetaPol
   4.870      3.475   
   1.000      1.000   
%endblock PAO.Basis

prinput: ----------------------------------------------------------------------

************************ Begin: HYBRID XC INITIALIZATION **********************

           1           0 F           5
nao2gto_gaussfit: Fitting of the radial part of NAO to Gaussians not converged:
nao2gto_gaussfit: error, tolerance:      0.00931     0.00100
nao2gto_transfer: species, orbital, gauss, exp, coef, epsilon, error =     1    1    1     0.27296     0.89217     0.00000    0    F
nao2gto_transfer: species, orbital, gauss, exp, coef, epsilon, error =     1    1    2     1.70024     3.46578     0.00000    0    F
nao2gto_transfer: species, orbital, gauss, exp, coef, epsilon, error =     1    1    3     2.38034    -7.48349     0.00000    0    F
nao2gto_transfer: species, orbital, gauss, exp, coef, epsilon, error =     1    1    4     3.33247     5.00669     0.00000    0    F
nao2gto_transfer: species, orbital, gauss, exp, coef, epsilon, error =     1    1    5     4.66546    -1.12578     0.00000    0    F
           2           0 F           5
nao2gto_gaussfit: Fitting of the radial part of NAO to Gaussians not converged:
nao2gto_gaussfit: error, tolerance:      0.00500     0.00100
nao2gto_transfer: species, orbital, gauss, exp, coef, epsilon, error =     1    2    1     0.67697     7.97987     0.00000    0    F
nao2gto_transfer: species, orbital, gauss, exp, coef, epsilon, error =     1    2    2     0.94776   -16.80959     0.00000    0    F
nao2gto_transfer: species, orbital, gauss, exp, coef, epsilon, error =     1    2    3     1.32687    20.10928     0.00000    0    F
nao2gto_transfer: species, orbital, gauss, exp, coef, epsilon, error =     1    2    4     1.85761   -14.53688     0.00000    0    F
nao2gto_transfer: species, orbital, gauss, exp, coef, epsilon, error =     1    2    5     2.60066     4.11038     0.00000    0    F
           3           1 F           4
nao2gto_gaussfit: Fitting of the radial part of NAO to Gaussians not converged:
nao2gto_gaussfit: error, tolerance:      0.00150     0.00100
nao2gto_transfer: species, orbital, gauss, exp, coef, epsilon, error =     1    3    1     0.21813     0.26487     0.00000    0    F
nao2gto_transfer: species, orbital, gauss, exp, coef, epsilon, error =     1    3    2     0.78059     0.85549     0.00000    0    F
nao2gto_transfer: species, orbital, gauss, exp, coef, epsilon, error =     1    3    3     2.69727     2.36510     0.00000    0    F
nao2gto_transfer: species, orbital, gauss, exp, coef, epsilon, error =     1    3    4     3.77617    -1.06378     0.00000    0    F
           4           1 F           4
nao2gto_gaussfit: Fitting of the radial part of NAO to Gaussians not converged:
nao2gto_gaussfit: error, tolerance:      0.00260     0.00100
nao2gto_transfer: species, orbital, gauss, exp, coef, epsilon, error =     1    4    1     0.52242     1.02438     0.00000    0    F
nao2gto_transfer: species, orbital, gauss, exp, coef, epsilon, error =     1    4    2     2.04562     2.08742     0.00000    0    F
nao2gto_transfer: species, orbital, gauss, exp, coef, epsilon, error =     1    4    3     3.41844     0.50654     0.00000    0    F
nao2gto_transfer: species, orbital, gauss, exp, coef, epsilon, error =     1    4    4     4.78581    -0.52189     0.00000    0    F
           5           2 T           4
nao2gto_gaussfit: Fitting of the radial part of NAO to Gaussians not converged:
nao2gto_gaussfit: error, tolerance:      0.12142     0.00100
nao2gto_transfer: species, orbital, gauss, exp, coef, epsilon, error =     1    5    1     0.61795     0.80547     0.00000    0    F
nao2gto_transfer: species, orbital, gauss, exp, coef, epsilon, error =     1    5    2     3.72528     1.49427     0.00000    0    F
nao2gto_transfer: species, orbital, gauss, exp, coef, epsilon, error =     1    5    3    72.85714    -0.55108     0.00000    0    F
nao2gto_transfer: species, orbital, gauss, exp, coef, epsilon, error =     1    5    4   103.00000     1.10226     0.00000    0    F
nao2gto_transfer: isp, inlz, ipgf, pgf_radius =     1    1    1     5.80880
nao2gto_transfer: isp, inlz, ipgf, pgf_radius =     1    1    2     2.32746
nao2gto_transfer: isp, inlz, ipgf, pgf_radius =     1    1    3     1.96706
nao2gto_transfer: isp, inlz, ipgf, pgf_radius =     1    1    4     1.66247
nao2gto_transfer: isp, inlz, ipgf, pgf_radius =     1    1    5     1.40505
nao2gto_transfer: isp, inlz, shell_radius =     1    1     5.80880     4.08834
nao2gto_transfer: isp, inlz, ipgf, pgf_radius =     1    2    1     3.68852
nao2gto_transfer: isp, inlz, ipgf, pgf_radius =     1    2    2     3.11737
nao2gto_transfer: isp, inlz, ipgf, pgf_radius =     1    2    3     2.63466
nao2gto_transfer: isp, inlz, ipgf, pgf_radius =     1    2    4     2.22669
nao2gto_transfer: isp, inlz, ipgf, pgf_radius =     1    2    5     1.88190
nao2gto_transfer: isp, inlz, shell_radius =     1    2     3.68852     3.34718
nao2gto_transfer: isp, inlz, ipgf, pgf_radius =     1    3    1     7.15873
nao2gto_transfer: isp, inlz, ipgf, pgf_radius =     1    3    2     3.66942
nao2gto_transfer: isp, inlz, ipgf, pgf_radius =     1    3    3     1.91179
nao2gto_transfer: isp, inlz, ipgf, pgf_radius =     1    3    4     1.60116
nao2gto_transfer: isp, inlz, shell_radius =     1    3     7.15873     4.87030
nao2gto_transfer: isp, inlz, ipgf, pgf_radius =     1    4    1     4.53014
nao2gto_transfer: isp, inlz, ipgf, pgf_radius =     1    4    2     2.21143
nao2gto_transfer: isp, inlz, ipgf, pgf_radius =     1    4    3     1.68741
nao2gto_transfer: isp, inlz, ipgf, pgf_radius =     1    4    4     1.41307
nao2gto_transfer: isp, inlz, shell_radius =     1    4     4.53014     3.47509
nao2gto_transfer: isp, inlz, ipgf, pgf_radius =     1    5    1     4.44190
nao2gto_transfer: isp, inlz, ipgf, pgf_radius =     1    5    2     1.65629
nao2gto_transfer: isp, inlz, ipgf, pgf_radius =     1    5    3     0.30652
nao2gto_transfer: isp, inlz, ipgf, pgf_radius =     1    5    4     0.25001
nao2gto_transfer: isp, inlz, shell_radius =     1    5     4.44190     4.87030
nao2gto_transfer: isp, kind_radius =     1     7.15873

nao2gto_print_info: NAO2GTO fitting information -------------------------------

# %%% HYBRID XC FDF BEGIN

# XC parameters with a short-range EXX potential
XC.functional   GGA
XC.authors      HSE06

# The NAO2GTO block is structured as following:
#
#     species1 norbs_species1
#     n1 l1 zeta1 ngaussians_orbital1
#     exponent_gaussian1 coefficient_gaussian1
#     exponent_gaussian2 coefficient_gaussian2
#     exponent_gaussian3 coefficient_gaussian3
#     ...
#     n2 l2 zeta2 ngaussians_orbital2
#     exponent_gaussian1 coefficient_gaussian1
#     ...
#     species2 norbs_species2
#     ...
#
%block NAO2GTO
C   5
2  0  1  5
    0.27296205E+00     0.89217489E+00
    0.17002405E+01     0.34657793E+01
    0.23803367E+01    -0.74834866E+01
    0.33324714E+01     0.50066920E+01
    0.46654598E+01    -0.11257788E+01
2  0  2  5
    0.67697238E+00     0.79798704E+01
    0.94776131E+00    -0.16809589E+02
    0.13268658E+01     0.20109284E+02
    0.18576121E+01    -0.14536880E+02
    0.26006569E+01     0.41103758E+01
2  1  1  4
    0.21813131E+00     0.26487027E+00
    0.78059056E+00     0.85548909E+00
    0.26972655E+01     0.23650972E+01
    0.37761716E+01    -0.10637839E+01
2  1  2  4
    0.52241504E+00     0.10243790E+01
    0.20456202E+01     0.20874248E+01
    0.34184379E+01     0.50654462E+00
    0.47858130E+01    -0.52188951E+00
3  2  1  4
    0.61795243E+00     0.80547450E+00
    0.37252765E+01     0.14942665E+01
    0.72857144E+02    -0.55108243E+00
    0.10300000E+03     0.11022650E+01
%endblock NAO2GTO

# Hartree-Fock exchange options
HFX.UseFittedNAOs                    T
HFX.TruncateDM                    T
HFX.DumpFitData                   T
HFX.FarField                      T
HFX.FitDataPoints               500
HFX.FarFieldTolerance     0.100E-05
HFX.PairListTolerance     0.100E-05
HFX.SchwarzTolerance      0.100E-05
HFX.StoreERIsTolerance    0.100E-05
HFX.Omega                 0.110E+00
HFX.MaximumNumberGaussians                  5
HFX.MaximumNumberGaussians                  4
HFX.MaximumNumberGaussians                  4
HFX.SeparationExponents                 0.140E+01
HFX.ToleranceFit                 0.100E-02
HFX.GaussianEPS                 0.100E-03
HFX.Dynamic_parallel                    F
HFX.FragSize                1000

# %%% HYBRID XC FDF END

nao2gto_print_info: END -------------------------------------------------------

C   5
************************ End: HYBRID XC INITIALIZATION ************************

coor:   Atomic-coordinates input format  =     Fractional

siesta: Atomic coordinates (Bohr) and species
siesta:      0.00000   2.68394   0.00000  1        1
siesta:      2.32436   1.34197   0.00000  1        2

siesta: System type = slab      

initatomlists: Number of atoms, orbitals, and projectors:      2    26    18

siesta: ******************** Simulation parameters ****************************
siesta:
siesta: The following are some of the parameters of the simulation.
siesta: A complete list of the parameters used, including default values,
siesta: can be found in file out.fdf
siesta:
redata: Spin configuration                          = none
redata: Number of spin components                   = 1
redata: Time-Reversal Symmetry                      = T
redata: Spin spiral                                 = F
redata: Long output                                 =   F
redata: Number of Atomic Species                    =        1
redata: Charge density info will appear in .RHO file
redata: Write Mulliken Pop.                         = NO
redata: Matel table size (NRTAB)                    =     1024
redata: Mesh Cutoff                                 =   250.0000 Ry
redata: Net charge of the system                    =     0.0000 |e|
redata: Min. number of SCF Iter                     =        0
redata: Max. number of SCF Iter                     =       50
redata: SCF convergence failure will abort job
redata: SCF mix quantity                            = Hamiltonian
redata: Mix DM or H after convergence               =   F
redata: Recompute H after scf cycle                 =   F
redata: Mix DM in first SCF step                    =   T
redata: Write Pulay info on disk                    =   F
redata: New DM Occupancy tolerance                  = 0.000000000001
redata: No kicks to SCF
redata: DM Mixing Weight for Kicks                  =     0.5000
redata: Require Harris convergence for SCF          =   F
redata: Harris energy tolerance for SCF             =     0.000100 eV
redata: Require DM convergence for SCF              =   T
redata: DM tolerance for SCF                        =     0.000100
redata: Require EDM convergence for SCF             =   F
redata: EDM tolerance for SCF                       =     0.001000 eV
redata: Require H convergence for SCF               =   T
redata: Hamiltonian tolerance for SCF               =     0.001000 eV
redata: Require (free) Energy convergence for SCF   =   F
redata: (free) Energy tolerance for SCF             =     0.000100 eV
redata: Using Saved Data (generic)                  =   F
redata: Use continuation files for DM               =   F
redata: Neglect nonoverlap interactions             =   F
redata: Method of Calculation                       = Diagonalization
redata: Electronic Temperature                      =   290.1109 K
redata: Fix the spin of the system                  =   F
redata: Dynamics option                             = Single-point calculation
mix.SCF: Pulay mixing                            = Pulay
mix.SCF:    Variant                              = stable
mix.SCF:    History steps                        = 6
mix.SCF:    Linear mixing weight                 =     0.100000
mix.SCF:    Mixing weight                        =     0.100000
mix.SCF:    SVD condition                        = 0.1000E-07
redata: ***********************************************************************

%block SCF.Mixers
  Pulay
%endblock SCF.Mixers

%block SCF.Mixer.Pulay
  # Mixing method
  method pulay
  variant stable

  # Mixing options
  weight 0.1000
  weight.linear 0.1000
  history 6
%endblock SCF.Mixer.Pulay
 
DM_history_depth set to one: no extrapolation allowed by default for geometry relaxation
Size of DM history Fstack: 1
Total number of electrons:     8.000000
Total ionic charge:     8.000000

* ProcessorY, Blocksize:    3   2


* Orbital distribution balance (max,min):     4     2

k-point displ. along   3 input, could be:     0.50    0.00
 Kpoints in:          162 . Kpoints trimmed:          162

siesta: k-grid: Number of k-points =   162
siesta: k-grid: Cutoff (effective) =    10.000 Ang
siesta: k-grid: Supercell and displacements
siesta: k-grid:   18   0   0      0.500
siesta: k-grid:    0  18   0      0.500
siesta: k-grid:    0   0   1      0.500
 
diag: Algorithm                                     = D&C
diag: Parallel over k                               =   F
diag: Use parallel 2D distribution                  =   T
diag: Parallel block-size                           = 2
diag: Parallel distribution                         =     3 x     4
diag: Used triangular part                          = Lower
diag: Absolute tolerance                            =  0.100E-15
diag: Orthogonalization factor                      =  0.100E-05
diag: Memory factor                                 =  1.0000
Using current reciprocal lattice vectors for BandLinesScale
Beware any cell changes by the end of the run
Using current reciprocal lattice vectors for BandLinesScale
Beware any cell changes by the end of the run

superc: Internal auxiliary supercell:     9 x     9 x     1  =      81
superc: Number of atoms, orbitals, and projectors:    162   2106   1458
 
 
ts: **************************************************************
ts: Save H and S matrices                           =    F
ts: Save DM and EDM matrices                        =    F
ts: Only save the overlap matrix S                  =    F
ts: **************************************************************
 
************************ Begin: TS CHECKS AND WARNINGS ************************
************************ End: TS CHECKS AND WARNINGS **************************


                     ====================================
                        Single-point calculation
                     ====================================

outcoor: Atomic coordinates (fractional):                   
    0.33333333    0.66666667    0.00000000   1       1  C
    0.66666667    0.33333333    0.00000000   1       2  C

superc: Internal auxiliary supercell:     9 x     9 x     1  =      81
superc: Number of atoms, orbitals, and projectors:    162   2106   1458

outcell: Unit cell vectors (Ang):
        2.460000    0.000000    0.000000
       -1.230000    2.130422    0.000000
        0.000000    0.000000   20.000000

outcell: Cell vector modules (Ang)   :    2.460000    2.460000   20.000000
outcell: Cell angles (23,13,12) (deg):     90.0000     90.0000    120.0000
outcell: Cell volume (Ang**3)        :    104.8168
<dSpData1D:S at geom step 0
  <sparsity:sparsity for geom step 0
    nrows_g=26 nrows=4 sparsity=3.6583 nnzs=2473, refcount: 7>
  <dData1D:(new from dSpData1D) n=2473, refcount: 1>
refcount: 1>
new_DM -- step:     1
Initializing Density Matrix...
DM filled with atomic data:
<dSpData2D:DM initialized from atoms
  <sparsity:sparsity for geom step 0
    nrows_g=26 nrows=4 sparsity=3.6583 nnzs=2473, refcount: 8>
  <dData2D:DM n=2473 m=1, refcount: 1>
refcount: 1>
calc_prescreen_eri: max_eri_prescreen      0.11448878E+01
init_prescreen_eri: nelem_ij =        28431
init_prescreen_eri: nelem_kl =      2302911
init_prescreen_eri: list_ij  :          767
init_prescreen_eri: list_kl  :        62127
init_prescreen_eri: max_eri =         0.114489E+01
No. of atoms with KB's overlaping orbs in proc 0. Max # of overlaps:      20     211
New grid distribution:   1
           1       1:   12    1:    4    1:   24
           2       1:   12    1:    4   25:   48
           3       1:   12    1:    4   49:   72
           4       1:   12    1:    4   73:   96
           5       1:   12    5:    8    1:   24
           6       1:   12    5:    8   25:   48
           7       1:   12    5:    8   49:   72
           8       1:   12    5:    8   73:   96
           9       1:   12    9:   12    1:   24
          10       1:   12    9:   12   25:   48
          11       1:   12    9:   12   49:   72
          12       1:   12    9:   12   73:   96

InitMesh: MESH =    24 x    24 x   192 =      110592
InitMesh: (bp) =    12 x    12 x    96 =       13824
InitMesh: Mesh cutoff (required, used) =   250.000   254.709 Ry
ExtMesh (bp) on 0 =   100 x    92 x   100 =      920000
New grid distribution:   2
           1       1:   12    1:   12    5:    6
           2       1:   12    1:   12   13:   88
           3       1:   12    1:   12   95:   95
           4       1:   12    1:   12   89:   90
           5       1:   12    1:   12    9:   12
           6       1:   12    1:   12    3:    4
           7       1:   12    1:   12    1:    1
           8       1:   12    1:   12   91:   92
           9       1:   12    1:   12    7:    8
          10       1:   12    1:   12   96:   96
          11       1:   12    1:   12    2:    2
          12       1:   12    1:   12   93:   94
New grid distribution:   3
           1       1:   12    1:   12   88:   90
           2       1:   12    1:   12   20:   81
           3       1:   12    1:   12    1:    3
           4       1:   12    1:   12   82:   84
           5       1:   12    1:   12   16:   19
           6       1:   12    1:   12    4:    6
           7       1:   12    1:   12   13:   15
           8       1:   12    1:   12   91:   93
           9       1:   12    1:   12   94:   96
          10       1:   12    1:   12    7:    9
          11       1:   12    1:   12   10:   12
          12       1:   12    1:   12   85:   87
Setting up quadratic distribution...
ExtMesh (bp) on 0 =   100 x   100 x    78 =      780000
PhiOnMesh: Number of (b)points on node 0 =                  288
PhiOnMesh: nlist on node 0 =                32414
setup_hfx: call #0001
 setup_hfx: HFX energy:        -20.154426  eV

stepf: Fermi-Dirac step function
setup_hfx: call #0002
 setup_hfx: HFX energy:        -18.312124  eV

siesta: Program's energy decomposition (eV):
siesta: Ebs     =      -112.926915
siesta: Eions   =       517.626557
siesta: Ena     =       111.246238
siesta: Ekin    =       219.862593
siesta: Enl     =       -20.911704
siesta: Eso     =         0.000000
siesta: Edftu   =         0.000000
siesta: DEna    =        -5.280973
siesta: DUscf   =         0.543299
siesta: DUext   =         0.000000
siesta: Exc     =      -101.135436
siesta: eta*DQ  =         0.000000
siesta: Emadel  =         0.000000
siesta: Emeta   =         0.000000
siesta: Emolmec =         0.000000
siesta: Ekinion =         0.000000
siesta: Eharris =      -313.113235
siesta: Etot    =      -313.302539
siesta: FreeEng =      -313.302539

        iscf     Eharris(eV)        E_KS(eV)     FreeEng(eV)     dDmax    Ef(eV) dHmax(eV)
   scf:    1     -313.113235     -313.302539     -313.302539  1.746287 -4.435931  2.901630
timer: Routine,Calls,Time,% = IterSCF        1      30.724  36.38
setup_hfx: call #0003
 setup_hfx: HFX energy:        -18.304310  eV
   scf:    2     -313.321574     -313.312075     -313.312075  0.007119 -4.338858  2.569704
setup_hfx: call #0004
 setup_hfx: HFX energy:        -18.245931  eV
   scf:    3     -313.384883     -313.349335     -313.349335  0.053043 -3.722107  0.181501
setup_hfx: call #0005
 setup_hfx: HFX energy:        -18.257140  eV
   scf:    4     -313.352165     -313.350745     -313.350745  0.003964 -3.874034  0.084970
setup_hfx: call #0006
 setup_hfx: HFX energy:        -18.252404  eV
   scf:    5     -313.350824     -313.350792     -313.350792  0.003040 -3.804732  0.032008
setup_hfx: call #0007
 setup_hfx: HFX energy:        -18.253909  eV
   scf:    6     -313.350805     -313.350801     -313.350801  0.000957 -3.823938  0.012331
setup_hfx: call #0008
 setup_hfx: HFX energy:        -18.253336  eV
   scf:    7     -313.350804     -313.350802     -313.350802  0.000475 -3.815487  0.001668
setup_hfx: call #0009
 setup_hfx: HFX energy:        -18.253248  eV
   scf:    8     -313.350802     -313.350802     -313.350802  0.000109 -3.813936  0.000044
setup_hfx: call #0010
 setup_hfx: HFX energy:        -18.253248  eV
   scf:    9     -313.350802     -313.350802     -313.350802  0.000005 -3.813149  0.000018

SCF Convergence by DM+H criterion
max |DM_out - DM_in|         :     0.0000046993
max |H_out - H_in|      (eV) :     0.0000184282
SCF cycle converged after 9 iterations

Using DM_out to compute the final energy and forces
No. of atoms with KB's overlaping orbs in proc 0. Max # of overlaps:      20     211
setup_hfx: call #0011
 setup_hfx: HFX energy:        -18.253248  eV

siesta: E_KS(eV) =             -313.3508

siesta: E_KS - E_eggbox =      -313.3508

siesta: Atomic forces (eV/Ang):
     1    1.560572   -2.152369    0.000000
     2   -1.560566    2.152377   -0.000000
----------------------------------------
   Tot    0.000006    0.000008   -0.000000
----------------------------------------
   Max    2.152377
   Res    1.534936    sqrt( Sum f_i^2 / 3N )
----------------------------------------
   Max    2.152377    constrained

Stress tensor Voigt[x,y,z,yz,xz,xy] (kbar):     -223.95     -223.92       -0.03       -0.00        0.00        0.05
(Free)E + p*V (eV/cell)     -303.5837
Target enthalpy (eV/cell)     -313.3508
Computing bands...

siesta: Program's energy decomposition (eV):
siesta: Ebs     =      -115.740713
siesta: Eions   =       517.626557
siesta: Ena     =       111.246238
siesta: Ekin    =       219.167052
siesta: Enl     =       -21.710556
siesta: Eso     =         0.000000
siesta: Edftu   =         0.000000
siesta: DEna    =        -4.120615
siesta: DUscf   =         0.499902
siesta: DUext   =         0.000000
siesta: Exc     =      -100.806266
siesta: eta*DQ  =         0.000000
siesta: Emadel  =         0.000000
siesta: Emeta   =         0.000000
siesta: Emolmec =         0.000000
siesta: Ekinion =         0.000000
siesta: Eharris =      -313.350802
siesta: Etot    =      -313.350802
siesta: FreeEng =      -313.350802

siesta: Final energy (eV):
siesta:  Band Struct. =    -115.740713
siesta:       Kinetic =     219.167052
siesta:       Hartree =    1552.245816
siesta:       Edftu   =       0.000000
siesta:       Eso     =       0.000000
siesta:    Ext. field =       0.000000
siesta:   Exch.-corr. =    -100.806266
siesta:  Ion-electron =   -3302.318923
siesta:       Ion-ion =    1318.361519
siesta:       Ekinion =       0.000000
siesta:         Total =    -313.350802
siesta:         Fermi =      -3.813149

siesta: Atomic forces (eV/Ang):
siesta:      1    1.560572   -2.152369    0.000000
siesta:      2   -1.560566    2.152377   -0.000000
siesta: ----------------------------------------
siesta:    Tot    0.000006    0.000008   -0.000000

siesta: Stress tensor (static) (eV/Ang**3):
siesta:    -0.139774    0.000032    0.000000
siesta:     0.000033   -0.139756   -0.000000
siesta:     0.000000   -0.000000   -0.000019

siesta: Cell volume =        104.816787 Ang**3

siesta: Pressure (static):
siesta:                Solid            Molecule  Units
siesta:           0.00101488          0.00113431  Ry/Bohr**3
siesta:           0.09318300          0.10414813  eV/Ang**3
siesta:         149.29723981        166.86550067  kBar
(Free)E+ p_basis*V_orbitals  =        -312.120897
(Free)Eharris+ p_basis*V_orbitals  =        -312.120897

siesta: Electric dipole (a.u.)  =    0.000000    0.000000   -0.000000
siesta: Electric dipole (Debye) =    0.000000    0.000000   -0.000001

cite: Please see "Graphene.bib" for an exhaustive BiBTeX file.
cite: Please clearly indicate Siesta version in published work: 4.1.5
cite: This calculation has made use of the following articles
cite: which are encouraged to be cited in a published work.
        Primary SIESTA paper
          DOI: www.doi.org/10.1088/0953-8984/14/11/302
 
>> End of run:   7-FEB-2024  13:45:01
Job completed
