
#FDF: Opened INPUT_TMP.94561      for input. Unit: 12

fdf-debug              0     # Default value
SystemName     Bulk Silisin                                                                                                                        
SystemLabel     Sibulk                                                                                                                              
XML.Write              T     # Default value
Write.XML              T     # Default value
XML.AbortOnErrors              F     # Default value
XML.AbortOnWarnings              F     # Default value
alloc_report_level              0     # Default value
xc.functional     GGA                                                                                                                                 
xc.authors     HSE06                                                                                                                               
MM.Cutoff          30.00000000     Bohr     # Default value
MM.UnitsEnergy     eV     # Default value
MM.UnitsDistance     Ang     # Default value
WriteIonPlotFiles              F     # Default value
Atom.Debug.KB.Generation              F     # Default value
user-basis              F     # Default value
user-basis-netcdf              F     # Default value
ReparametrizePseudos              F     # Default value
Restricted.Radial.Grid              T     # Default value
Rmax.Radial.Grid          0.000000000         # Default value
PAO.BasisSize     DZP                                                                                                                                 
PAO.BasisType     split          # Default value
PAO.SoftDefault              F     # Default value
PAO.SoftInnerRadius         0.9000000000         # Default value
PAO.SoftPotential          40.00000000         # Default value
PAO.SplitNorm         0.1500000000         # Default value
PAO.SplitNormH         -1.000000000         # Default value
Number_of_species                        1

%block ChemicalSpeciesLabel                                                    
  1  14  Si                                                                    
%endblock ChemicalSpeciesLabel                                                 
 
FilterCutoff          0.000000000     Ry     # Default value
FilterTol          0.000000000     Ry     # Default value
KB.Rmax          6.000000000     Bohr     # Default value
PAO.EnergyShift         0.2000000000E-01 Ry     # Default value
PAO.SplitTailNorm              F     # Default value
PAO.FixSplitTable              F     # Default value
PAO.NewSplitCode              F     # Default value
PAO.Filter              F     # Default value
PAO.Keep.Findp.Bug              F     # Default value
PAO.Filter              F     # Default value
PAO.Filter              F     # Default value
PAO.Filter              F     # Default value
PAO.OldStylePolorbs              T     # Default value
PAO.SplitTailNorm              F     # Default value
PAO.FixSplitTable              F     # Default value
PAO.NewSplitCode              F     # Default value
PAO.Filter              F     # Default value
Vna.Filter              F     # Default value
PAO.BasisType     split          # Default value
HFX.DumpFitData              T     # Default value
HFX.FitDataPoints            500     # Default value
HFX.MinimumNumberGaussians                        3
HFX.MaximumNumberGaussians                        5
HFX.ToleranceFit         0.1000000000E-02     # Default value
HFX.SeparationExponents          1.400000000         # Default value
HFX.GaussianEPS         0.1000000000E-04

%block NAO2GTO                                                                 
Si   5                                                                         
3  0  1  5                                                                     
       0.179543763     0.766529816                                             
       1.428571429    -0.738302342                                             
       2.000000000    -1.004566820                                             
       2.800000000     1.982436539                                             
       3.920000000    -0.736616451                                             
3  0  2  5                                                                     
       0.335009542     2.745919238                                             
       0.469013358    -2.059683130                                             
       1.883789851    -2.767628033                                             
       2.637305791     3.385876003                                             
       3.692228108    -1.091102315                                             
3  1  1  4                                                                     
       0.150000000     0.236476747                                             
       0.684470842     0.803265300                                             
       0.958259179    -0.961002579                                             
       1.341562851     0.311032675                                             
3  1  2  4                                                                     
       0.244635090     0.486420717                                             
       0.905208197     0.361970708                                             
       1.267291476    -0.570942156                                             
       1.774208066     0.219187269                                             
3  2  1  3                                                                     
       0.256969853     0.204146654                                             
       2.078564229     0.089743383                                             
     102.000000000     0.056704347                                             
%endblock NAO2GTO                                                              
 
HFX.UseFittedNAOs              T
Atom-Setup-Only              F     # Default value
UseStructFile              F     # Default value
MD.UseStructFile              F     # Default value
LatticeConstant          10.26121695           Bohr
# Above item originally: LatticeConstant          5.430000000     Ang       

%block LatticeVectors                                                          
  1.00  0.00  0.00                                                             
  0.00  1.00  0.00                                                             
  0.00  0.00  1.00                                                             
%endblock LatticeVectors                                                       
 

%block LatticeVectors                                                          
  1.00  0.00  0.00                                                             
  0.00  1.00  0.00                                                             
  0.00  0.00  1.00                                                             
%endblock LatticeVectors                                                       
 

%block Supercell                                                               
   2   0   0                                                                   
   0   2   0                                                                   
   0   0   4                                                                   
%endblock Supercell                                                            
 
AtomicCoordinatesFormat     Fractional                                                                                                                          
NumberOfAtoms                        8
ZM.UnitsLength     Bohr           # Default value
ZM.UnitsAngle     rad            # Default value
ZM.ForceTolLength         0.1555740000E-02 Ry/Bohr     # Default value
ZM.ForceTolAngle         0.3565490000E-02 Ry/rad     # Default value
ZM.MaxDisplLength         0.2000000000     Bohr     # Default value
ZM.MaxDisplAngle         0.3000000000E-02 rad     # Default value
ZM.CalcAllForces              F     # Default value

%block AtomicCoordinatesAndAtomicSpecies                                       
  0.00000000000000  0.00000000000000  0.00000000000000  1                      
  0.00000000000000  0.50000000000000  0.50000000000000  1                      
  0.50000000000000  0.00000000000000  0.50000000000000  1                      
  0.50000000000000  0.50000000000000  0.00000000000000  1                      
  0.75000000000000  0.25000000000000  0.75000000000000  1                      
  0.25000000000000  0.25000000000000  0.25000000000000  1                      
  0.25000000000000  0.75000000000000  0.75000000000000  1                      
  0.75000000000000  0.75000000000000  0.25000000000000  1                      
%endblock AtomicCoordinatesAndAtomicSpecies                                    
 
UseSaveData              F     # Default value
MD.UseSaveXV              F     # Default value
MD.UseSaveZM              F     # Default value
WriteCoorInitial              T     # Default value
MD.TypeOfRun     cg                                                                                                                                  
MaxBondDistance          6.000000000     Bohr     # Default value
Output-Structure-Only              F     # Default value
SpinPolarized              F     # Default value
NonCollinearSpin              F     # Default value
LongOutput              F     # Default value
WriteDenchar              F     # Default value
WriteMullikenPop              0     # Default value
WriteHirshfeldPop              F     # Default value
WriteVoronoiPop              F     # Default value
PartialChargesAtEveryGeometry              F     # Default value
PartialChargesAtEveryScfStep              F     # Default value
MeshCutoff          150.0000000             Ry
# Above item originally: MeshCutoff          150.0000000     Ry        
NetCharge          0.000000000         # Default value
MaxSCFIterations                       50
SCFMustConverge              F     # Default value
DM.NumberPulay                        3
DM.NumberBroyden              0     # Default value
DM.FIRE.Mixing              F     # Default value
DM.MixSCF1              F     # Default value
DM.PulayOnFile              F     # Default value
DM.Pulay.Avoid.First.After.Kick              F     # Default value
DM.MixingWeight         0.3000000000    
DM.OccupancyTolerance         0.1000000000E-11     # Default value
DM.NumberKick              0     # Default value
DM.KickMixingWeight         0.5000000000         # Default value
DM.Tolerance         0.1000000000E-03
DM.RequireEnergyConvergence              F     # Default value
DM.EnergyTolerance         0.7349806700E-05 Ry     # Default value
DM.RequireHarrisConvergence              F     # Default value
DM.HarrisTolerance         0.7349806700E-05 Ry     # Default value
UseSaveData              F     # Default value
DM.UseSaveDM              F     # Default value
NeglNonOverlapInt              F     # Default value
SolutionMethod     diagon                                                                                                                              
Diag.DivideAndConquer              T     # Default value
Diag.Memory          1.000000000         # Default value
ElectronicTemperature         0.1837449711E-02         Ry
# Above item originally: ElectronicTemperature          25.00000000     meV       
FixSpin              F     # Default value
ON.MaxNumIter           1000     # Default value
ON.etol         0.1000000000E-07     # Default value
ON.eta          0.000000000     Ry     # Default value
ON.eta_alpha          0.000000000     Ry     # Default value
ON.eta_beta          0.000000000     Ry     # Default value
On.RcLWF          9.500000000     Bohr     # Default value
ON.UseSaveLWF              F     # Default value
ON.functional     kim     # Default value
ON.ChemicalPotentialUse              F     # Default value
ON.ChemicalPotential              F     # Default value
ON.ChemicalPotentialRc          9.500000000     Bohr     # Default value
ON.ChemicalPotentialTemperature         0.5000000000E-01 Ry     # Default value
ON.ChemicalPotentialOrder            100     # Default value
MD.VariableCell              F
MD.TypeOfRun     cg                                                                                                                                  
MD.UseSaveCG              F     # Default value
Optim.Broyden              F     # Default value
MD.NumCGsteps                        0
MD.MaxCGDispl         0.2000000000     Bohr     # Default value
MD.MaxForceTol         0.3889348769E-03    Ry/Bohr
# Above item originally: MD.MaxForceTol         0.1000000000E-01 eV/Ang    
MD.MaxStressTol         0.6797730000E-04 Ry/Bohr**3     # Default value
MD.InitialTimeStep              1     # Default value
MD.FinalTimeStep              1     # Default value
MD.LengthTimeStep          1.000000000     fs     # Default value
MD.Quench              F     # Default value
MD.FireQuench              F     # Default value
MD.InitialTemperature          0.000000000     K     # Default value
MD.TargetTemperature          0.000000000     K     # Default value
MD.TargetPressure          0.000000000     Ry/Bohr**3     # Default value
MD.NoseMass          100.0000000     Ry*fs**2     # Default value
MD.ParrinelloRahmanMass          100.0000000     Ry*fs**2     # Default value
MD.AnnealOption     TemperatureAndPressure     # Default value
MD.TauRelax          100.0000000     fs     # Default value
MD.BulkModulus         0.6797730000E-02 Ry/Bohr**3     # Default value
MD.FCDispl         0.4000000000E-01 Bohr     # Default value
MD.FCfirst              1     # Default value
MD.FClast            128     # Default value
UseSpatialDecomposition              F     # Default value
UseDomainDecomposition              F     # Default value
Harris_functional              F     # Default value
WriteKpoints              F     # Default value
WriteForces              T
WriteDM              T     # Default value
WriteDM.NetCDF              T     # Default value
WriteDM.History.NetCDF              F     # Default value
WriteDMHS.NetCDF              T     # Default value
WriteDMHS.History.NetCDF              F     # Default value
SCF.Read.Charge.NetCDF              F     # Default value
SCF.Read.Deformation.Charge.NetCDF              F     # Default value
SaveInitialChargeDensity              F     # Default value
UseNewDiagk              F     # Default value
WriteBands              F     # Default value
WriteKbands              F     # Default value
WriteEigenvalues              F     # Default value
WriteCoorStep              T     # Label by itself
WriteMDhistory              F     # Default value
WriteMDXmol              F     # Default value
UseSaveData              F     # Default value
SaveHS              F     # Default value
FixAuxiliaryCell              F     # Default value
NaiveAuxiliaryCell              F     # Default value
ReInitialiseDM              T     # Default value
DM.AllowReuse              T     # Default value
DM.AllowExtrapolation              T     # Default value
MullikenInSCF              F     # Default value
WarningMinimumAtomicDistance          1.000000000     Bohr     # Default value
BornCharge              F     # Default value
ChangeKgridInMD              F     # Default value
Diag.ParallelOverK              F     # Default value
MD.RelaxCellOnly              F     # Default value
MD.RemoveIntraMolecularPressure              F     # Default value
COOP.Write              F     # Default value
SaveRho              F     # Default value
SaveDeltaRho              F     # Default value
SaveElectrostaticPotential              F     # Default value
SaveNeutralAtomPotential              F     # Default value
SaveTotalPotential              F     # Default value
SaveIonicCharge              F     # Default value
SaveBaderCharge              F     # Default value
SaveTotalCharge              F     # Default value
RcSpatial          0.000000000     Bohr     # Default value
ProcessorGridX              1     # Default value
ProcessorGridY              1     # Default value
ProcessorGridZ              1     # Default value
processorY             12     # Default value
blocksize              7     # Default value
NumberOfEigenStates           1664     # Default value
TimeReversalSymmetryForKpoints              T     # Default value
kgrid_cutoff          0.000000000           Bohr
# Above item originally: kgrid_cutoff          0.000000000     Bohr      
WFS.EnergyMin        -0.1797693135+309 Ry     # Default value
WFS.EnergyMax         0.1797693135+309 Ry     # Default value
LongOutput              F     # Default value
WriteWaveFunctions              F     # Default value
WriteWaveDebug              F     # Default value
ForceAuxCell              F     # Default value
AtomicCoordinatesFormat     Fractional                                                                                                                          
AtomCoorFormatOut     Fractional                 # Default value
LatticeConstant          10.26121695           Bohr
# Above item originally: LatticeConstant          5.430000000     Ang       
Harris_functional              F     # Default value
MeshSubDivisions              2     # Default value
LatticeConstant          10.26121695           Bohr
# Above item originally: LatticeConstant          5.430000000     Ang       

%block LatticeVectors                                                          
  1.00  0.00  0.00                                                             
  0.00  1.00  0.00                                                             
  0.00  0.00  1.00                                                             
%endblock LatticeVectors                                                       
 

%block LatticeVectors                                                          
  1.00  0.00  0.00                                                             
  0.00  1.00  0.00                                                             
  0.00  0.00  1.00                                                             
%endblock LatticeVectors                                                       
 

%block Supercell                                                               
   2   0   0                                                                   
   0   2   0                                                                   
   0   0   4                                                                   
%endblock Supercell                                                            
 
DirectPhi              F     # Default value
SimulateDoping              F     # Default value
SlabDipoleCorrection              F     # Default value
Omega         0.1100000000         # Default value
On_the_fly              F     # Default value
HFX.SchwarzTolerance         0.1000000000E-05
HFX.StoreERIsTolerance         0.1000000000E-05
HFX.PairListTolerance         0.1000000000E-05
HFX.FarFieldTolerance         0.1000000000E-05
HFX.FarField              T
HFX.StoreERIs              F     # Default value
HFX.TruncateDM              T
HFX.Dynamic_parallel              T
HFX.FragSize                   100000
HFX.DumpFitData              T     # Default value
HFX.FitDataPoints            500     # Default value
HFX.MinimumNumberGaussians                        3
HFX.MaximumNumberGaussians                        5
HFX.SeparationExponents          1.400000000         # Default value
HFX.ToleranceFit         0.1000000000E-02     # Default value
HFX.UseFittedNAOs              T
HFX.GaussianEPS         0.1000000000E-04
Diag.ParallelOverK              F     # Default value
LatticeConstant          10.26121695           Bohr
# Above item originally: LatticeConstant          5.430000000     Ang       

%block LatticeVectors                                                          
  1.00  0.00  0.00                                                             
  0.00  1.00  0.00                                                             
  0.00  0.00  1.00                                                             
%endblock LatticeVectors                                                       
 

%block LatticeVectors                                                          
  1.00  0.00  0.00                                                             
  0.00  1.00  0.00                                                             
  0.00  0.00  1.00                                                             
%endblock LatticeVectors                                                       
 

%block Supercell                                                               
   2   0   0                                                                   
   0   2   0                                                                   
   0   0   4                                                                   
%endblock Supercell                                                            
 
Diag.AllInOne              F     # Default value
Diag.DivideAndConquer              T     # Default value
Diag.NoExpert              F     # Default value
Diag.PreRotate              F     # Default value
Diag.Use2D              T     # Default value
SingleExcitation              F     # Default value
OccupationFunction     FD     # Default value
OccupationFunction     FD     # Default value
DM.FormattedFiles              F     # Default value
DM.FormattedInput              F     # Default value
DM.FormattedOutput              F     # Default value
Omega         0.1100000000         # Default value
On_the_fly              F     # Default value
HFX.SchwarzTolerance         0.1000000000E-05
HFX.StoreERIsTolerance         0.1000000000E-05
HFX.PairListTolerance         0.1000000000E-05
HFX.FarFieldTolerance         0.1000000000E-05
HFX.FarField              T
HFX.StoreERIs              F     # Default value
HFX.TruncateDM              T
HFX.Dynamic_parallel              T
HFX.FragSize                   100000
HFX.DumpFitData              T     # Default value
HFX.FitDataPoints            500     # Default value
HFX.MinimumNumberGaussians                        3
HFX.MaximumNumberGaussians                        5
HFX.SeparationExponents          1.400000000         # Default value
HFX.ToleranceFit         0.1000000000E-02     # Default value
HFX.UseFittedNAOs              T
HFX.GaussianEPS         0.1000000000E-04
WriteCoorXmol              F     # Default value
WriteCoorCerius              F     # Default value
BasisPressure         0.2000000000     GPa     # Default value
OpticalCalculation              F     # Default value
