
#FDF: Opened INPUT_TMP.51053      for input. Unit: 12

fdf-debug              0     # Default value
SystemName     Bulk diamond                                                                                                                        
SystemLabel     Diamond                                                                                                                             
XML.Write              T     # Default value
Write.XML              T     # Default value
XML.AbortOnErrors              F     # Default value
XML.AbortOnWarnings              F     # Default value
alloc_report_level              0     # Default value
xc.functional     GGA                                                                                                                                 
xc.authors     HSE06                                                                                                                               
MM.Cutoff          30.00000000     Bohr     # Default value
MM.UnitsEnergy     eV     # Default value
MM.UnitsDistance     Ang     # Default value
WriteIonPlotFiles              F     # Default value
Atom.Debug.KB.Generation              F     # Default value
user-basis              F     # Default value
user-basis-netcdf              F     # Default value
ReparametrizePseudos              F     # Default value
Restricted.Radial.Grid              T     # Default value
Rmax.Radial.Grid          0.000000000         # Default value
PAO.BasisSize     DZP                                                                                                                                 
PAO.BasisType     split          # Default value
PAO.SoftDefault              F     # Default value
PAO.SoftInnerRadius         0.9000000000         # Default value
PAO.SoftPotential          40.00000000         # Default value
PAO.SplitNorm         0.1500000000         # Default value
PAO.SplitNormH         -1.000000000         # Default value
Number_of_species                        1

%block ChemicalSpeciesLabel                                                    
  1  6 C                                                                       
%endblock ChemicalSpeciesLabel                                                 
 

%block PS.lmax                                                                 
C  2                                                                           
%endblock PS.lmax                                                              
 
FilterCutoff          0.000000000     Ry     # Default value
FilterTol          0.000000000     Ry     # Default value
KB.Rmax          6.000000000     Bohr     # Default value
PAO.EnergyShift         0.2000000000E-01 Ry     # Default value
PAO.SplitTailNorm              F     # Default value
PAO.FixSplitTable              F     # Default value
PAO.NewSplitCode              F     # Default value
PAO.Filter              F     # Default value
PAO.Keep.Findp.Bug              F     # Default value
PAO.Filter              F     # Default value
PAO.Filter              F     # Default value
PAO.Filter              F     # Default value
PAO.OldStylePolorbs              T     # Default value
PAO.SplitTailNorm              F     # Default value
PAO.FixSplitTable              F     # Default value
PAO.NewSplitCode              F     # Default value
PAO.Filter              F     # Default value
Vna.Filter              F     # Default value
PCC.Filter              F     # Default value
PAO.BasisType     split          # Default value
HFX.DumpFitData              T     # Default value
HFX.FitDataPoints            500     # Default value
HFX.MaximumNumberGaussians-S                        5
HFX.MaximumNumberGaussians-P                        4
HFX.MaximumNumberGaussians-D                        3
HFX.ToleranceFit         0.1000000000E-02
HFX.SeparationExponents          1.400000000    
HFX.GaussianEPS         0.1000000000E-04

%block NAO2GTO                                                                 
C   5                                                                          
2  0  1  5                                                                     
    0.27296205E+00     0.89217489E+00                                          
    0.17002405E+01     0.34657793E+01                                          
    0.23803367E+01    -0.74834866E+01                                          
    0.33324714E+01     0.50066920E+01                                          
    0.46654598E+01    -0.11257788E+01                                          
2  0  2  5                                                                     
    0.67697238E+00     0.79798704E+01                                          
    0.94776131E+00    -0.16809589E+02                                          
    0.13268658E+01     0.20109284E+02                                          
    0.18576121E+01    -0.14536880E+02                                          
    0.26006569E+01     0.41103758E+01                                          
2  1  1  4                                                                     
    0.21813131E+00     0.26487027E+00                                          
    0.78059056E+00     0.85548909E+00                                          
    0.26972655E+01     0.23650972E+01                                          
    0.37761716E+01    -0.10637839E+01                                          
2  1  2  4                                                                     
    0.52241504E+00     0.10243790E+01                                          
    0.20456202E+01     0.20874248E+01                                          
    0.34184379E+01     0.50654462E+00                                          
    0.47858130E+01    -0.52188951E+00                                          
3  2  1  3                                                                     
    0.52546310E+00     0.65386969E+00                                          
    0.31094692E+01     0.15696190E+01                                          
    0.10200000E+03     0.61581292E+00                                          
%endblock NAO2GTO                                                              
 
HFX.UseFittedNAOs              T
Atom-Setup-Only              F     # Default value
UseStructFile              F     # Default value
MD.UseStructFile              F     # Default value
LatticeConstant          6.725537958           Bohr
# Above item originally: LatticeConstant          3.559000000     Ang       

%block LatticeVectors                                                          
  0.00  0.50  0.50                                                             
  0.50  0.00  0.50                                                             
  0.50  0.50  0.00                                                             
%endblock LatticeVectors                                                       
 

%block LatticeVectors                                                          
  0.00  0.50  0.50                                                             
  0.50  0.00  0.50                                                             
  0.50  0.50  0.00                                                             
%endblock LatticeVectors                                                       
 
AtomicCoordinatesFormat     Fractional                                                                                                                          
NumberOfAtoms                        2
ZM.UnitsLength     Bohr           # Default value
ZM.UnitsAngle     rad            # Default value
ZM.ForceTolLength         0.1555740000E-02 Ry/Bohr     # Default value
ZM.ForceTolAngle         0.3565490000E-02 Ry/rad     # Default value
ZM.MaxDisplLength         0.2000000000     Bohr     # Default value
ZM.MaxDisplAngle         0.3000000000E-02 rad     # Default value
ZM.CalcAllForces              F     # Default value

%block AtomicCoordinatesAndAtomicSpecies                                       
  0.00  0.00  0.00        1                                                    
  0.25  0.25  0.25        1                                                    
%endblock AtomicCoordinatesAndAtomicSpecies                                    
 
UseSaveData              F     # Default value
MD.UseSaveXV              F     # Default value
MD.UseSaveZM              F     # Default value
WriteCoorInitial              T     # Default value
MD.TypeOfRun     cg                                                                                                                                  
MaxBondDistance          6.000000000     Bohr     # Default value
Output-Structure-Only              F     # Default value
SpinPolarized              F     # Default value
NonCollinearSpin              F     # Default value
LongOutput              F     # Default value
WriteDenchar              F     # Default value
WriteMullikenPop              0     # Default value
WriteHirshfeldPop              F     # Default value
WriteVoronoiPop              F     # Default value
PartialChargesAtEveryGeometry              F     # Default value
PartialChargesAtEveryScfStep              F     # Default value
MeshCutoff          250.0000000             Ry
# Above item originally: MeshCutoff          250.0000000     Ry        
NetCharge          0.000000000         # Default value
MaxSCFIterations                       50
SCFMustConverge              F     # Default value
DM.NumberPulay                        6
DM.NumberBroyden              0     # Default value
DM.FIRE.Mixing              F     # Default value
DM.MixSCF1              F     # Default value
DM.PulayOnFile              F     # Default value
DM.Pulay.Avoid.First.After.Kick              F     # Default value
DM.MixingWeight         0.2000000000    
DM.OccupancyTolerance         0.1000000000E-11     # Default value
DM.NumberKick              0     # Default value
DM.KickMixingWeight         0.5000000000         # Default value
DM.Tolerance         0.1000000000E-03
DM.RequireEnergyConvergence              F     # Default value
DM.EnergyTolerance         0.7349806700E-05 Ry     # Default value
DM.RequireHarrisConvergence              F     # Default value
DM.HarrisTolerance         0.7349806700E-05 Ry     # Default value
UseSaveData              F     # Default value
DM.UseSaveDM              F     # Default value
NeglNonOverlapInt              F     # Default value
SolutionMethod     diagon                                                                                                                              
Diag.DivideAndConquer              T     # Default value
Diag.Memory          1.000000000         # Default value
ElectronicTemperature         0.1837449711E-02         Ry
# Above item originally: ElectronicTemperature          25.00000000     meV       
FixSpin              F     # Default value
ON.MaxNumIter           1000     # Default value
ON.etol         0.1000000000E-07     # Default value
ON.eta          0.000000000     Ry     # Default value
ON.eta_alpha          0.000000000     Ry     # Default value
ON.eta_beta          0.000000000     Ry     # Default value
On.RcLWF          9.500000000     Bohr     # Default value
ON.UseSaveLWF              F     # Default value
ON.functional     kim     # Default value
ON.ChemicalPotentialUse              F     # Default value
ON.ChemicalPotential              F     # Default value
ON.ChemicalPotentialRc          9.500000000     Bohr     # Default value
ON.ChemicalPotentialTemperature         0.5000000000E-01 Ry     # Default value
ON.ChemicalPotentialOrder            100     # Default value
MD.VariableCell              F     # Default value
MD.TypeOfRun     cg                                                                                                                                  
MD.UseSaveCG              F     # Default value
Optim.Broyden              F     # Default value
MD.NumCGsteps                       50
MD.MaxCGDispl         0.2000000000     Bohr     # Default value
MD.MaxForceTol         0.3889348769E-03    Ry/Bohr
# Above item originally: MD.MaxForceTol         0.1000000000E-01 eV/Ang    
MD.MaxStressTol         0.6797730000E-04 Ry/Bohr**3     # Default value
MD.InitialTimeStep              1     # Default value
MD.FinalTimeStep              1     # Default value
MD.LengthTimeStep          1.000000000     fs     # Default value
MD.Quench              F     # Default value
MD.FireQuench              F     # Default value
MD.InitialTemperature          0.000000000     K     # Default value
MD.TargetTemperature          0.000000000     K     # Default value
MD.TargetPressure          0.000000000     Ry/Bohr**3     # Default value
MD.NoseMass          100.0000000     Ry*fs**2     # Default value
MD.ParrinelloRahmanMass          100.0000000     Ry*fs**2     # Default value
MD.AnnealOption     TemperatureAndPressure     # Default value
MD.TauRelax          100.0000000     fs     # Default value
MD.BulkModulus         0.6797730000E-02 Ry/Bohr**3     # Default value
MD.FCDispl         0.4000000000E-01 Bohr     # Default value
MD.FCfirst              1     # Default value
MD.FClast              2     # Default value
UseSpatialDecomposition              F     # Default value
UseDomainDecomposition              F     # Default value
Harris_functional              F     # Default value
WriteKpoints              F     # Default value
WriteForces              T
WriteDM              T     # Default value
WriteDM.NetCDF              T     # Default value
WriteDM.History.NetCDF              F     # Default value
WriteDMHS.NetCDF              T     # Default value
WriteDMHS.History.NetCDF              F     # Default value
SCF.Read.Charge.NetCDF              F     # Default value
SCF.Read.Deformation.Charge.NetCDF              F     # Default value
SaveInitialChargeDensity              F     # Default value
UseNewDiagk              F     # Default value
WriteBands              F     # Default value
WriteKbands              F     # Default value
WriteEigenvalues              F     # Default value
WriteCoorStep              T     # Label by itself
WriteMDhistory              F     # Default value
WriteMDXmol              F     # Default value
UseSaveData              F     # Default value
SaveHS              F     # Default value
FixAuxiliaryCell              F     # Default value
NaiveAuxiliaryCell              F     # Default value
ReInitialiseDM              T     # Default value
DM.AllowReuse              T     # Default value
DM.AllowExtrapolation              T     # Default value
MullikenInSCF              F     # Default value
WarningMinimumAtomicDistance          1.000000000     Bohr     # Default value
BornCharge              F     # Default value
ChangeKgridInMD              F     # Default value
Diag.ParallelOverK              F     # Default value
MD.RelaxCellOnly              F     # Default value
MD.RemoveIntraMolecularPressure              F     # Default value
COOP.Write              F     # Default value
SaveRho              F     # Default value
SaveDeltaRho              F     # Default value
SaveElectrostaticPotential              F     # Default value
SaveNeutralAtomPotential              F     # Default value
SaveTotalPotential              F     # Default value
SaveIonicCharge              F     # Default value
SaveBaderCharge              F     # Default value
SaveTotalCharge              F     # Default value
RcSpatial          0.000000000     Bohr     # Default value
ProcessorGridX              1     # Default value
ProcessorGridY              1     # Default value
ProcessorGridZ              1     # Default value
processorY              3     # Default value
blocksize              3     # Default value
NumberOfEigenStates             26     # Default value
TimeReversalSymmetryForKpoints              T     # Default value

%block kgrid_Monkhorst_Pack                                                    
   8  0  0  0.5                                                                
   0  8  0  0.5                                                                
   0  0  8  0.5                                                                
%endblock kgrid_Monkhorst_Pack                                                 
 
BandLines
LatticeConstant          6.725537958           Bohr
# Above item originally: LatticeConstant          3.559000000     Ang       
BandLinesScale     ReciprocalLatticeVectors                                                                                                            
LatticeConstant          6.725537958           Bohr
# Above item originally: LatticeConstant          3.559000000     Ang       

%block LatticeVectors                                                          
  0.00  0.50  0.50                                                             
  0.50  0.00  0.50                                                             
  0.50  0.50  0.00                                                             
%endblock LatticeVectors                                                       
 

%block LatticeVectors                                                          
  0.00  0.50  0.50                                                             
  0.50  0.00  0.50                                                             
  0.50  0.50  0.00                                                             
%endblock LatticeVectors                                                       
 

%block BandLines                                                               
1   0.375 0.375 0.75  K                                                        
40   0.0  0.0  0.0     \Gamma                                                  
40   0.5  0.0  0.5     X                                                       
40   0.5  0.25  0.75  W                                                        
40   0.5  0.5  0.5     L                                                       
40   0.0  0.0  0.0     \Gamma                                                  
%endblock BandLines                                                            
 
BandLines
LatticeConstant          6.725537958           Bohr
# Above item originally: LatticeConstant          3.559000000     Ang       
BandLinesScale     ReciprocalLatticeVectors                                                                                                            
LatticeConstant          6.725537958           Bohr
# Above item originally: LatticeConstant          3.559000000     Ang       

%block LatticeVectors                                                          
  0.00  0.50  0.50                                                             
  0.50  0.00  0.50                                                             
  0.50  0.50  0.00                                                             
%endblock LatticeVectors                                                       
 

%block LatticeVectors                                                          
  0.00  0.50  0.50                                                             
  0.50  0.00  0.50                                                             
  0.50  0.50  0.00                                                             
%endblock LatticeVectors                                                       
 

%block BandLines                                                               
1   0.375 0.375 0.75  K                                                        
40   0.0  0.0  0.0     \Gamma                                                  
40   0.5  0.0  0.5     X                                                       
40   0.5  0.25  0.75  W                                                        
40   0.5  0.5  0.5     L                                                       
40   0.0  0.0  0.0     \Gamma                                                  
%endblock BandLines                                                            
 
WFS.EnergyMin        -0.1797693135+309 Ry     # Default value
WFS.EnergyMax         0.1797693135+309 Ry     # Default value
LongOutput              F     # Default value
WriteWaveFunctions              F     # Default value
WriteWaveDebug              F     # Default value
ForceAuxCell              F     # Default value
AtomicCoordinatesFormat     Fractional                                                                                                                          
AtomCoorFormatOut     Fractional                 # Default value
LatticeConstant          6.725537958           Bohr
# Above item originally: LatticeConstant          3.559000000     Ang       
Harris_functional              F     # Default value
MeshSubDivisions              2     # Default value
LatticeConstant          6.725537958           Bohr
# Above item originally: LatticeConstant          3.559000000     Ang       

%block LatticeVectors                                                          
  0.00  0.50  0.50                                                             
  0.50  0.00  0.50                                                             
  0.50  0.50  0.00                                                             
%endblock LatticeVectors                                                       
 

%block LatticeVectors                                                          
  0.00  0.50  0.50                                                             
  0.50  0.00  0.50                                                             
  0.50  0.50  0.00                                                             
%endblock LatticeVectors                                                       
 
DirectPhi              F     # Default value
SimulateDoping              F     # Default value
SlabDipoleCorrection              F     # Default value
Omega         0.1100000000         # Default value
On_the_fly              F     # Default value
HFX.SchwarzTolerance         0.1000000000E-05
HFX.StoreERIsTolerance         0.1000000000E-05
HFX.PairListTolerance         0.1000000000E-05
HFX.FarFieldTolerance         0.1000000000E-05
HFX.FarField              T
HFX.StoreERIs              F     # Default value
HFX.TruncateDM              T
HFX.Dynamic_parallel              F
HFX.FragSize                    10000
HFX.DumpFitData              T     # Default value
HFX.FitDataPoints            500     # Default value
HFX.MaximumNumberGaussians-S                        5
HFX.MaximumNumberGaussians-P                        4
HFX.MaximumNumberGaussians-D                        3
HFX.SeparationExponents          1.400000000    
HFX.ToleranceFit         0.1000000000E-02
HFX.UseFittedNAOs              T
HFX.GaussianEPS         0.1000000000E-04
Diag.ParallelOverK              F     # Default value
LatticeConstant          6.725537958           Bohr
# Above item originally: LatticeConstant          3.559000000     Ang       

%block LatticeVectors                                                          
  0.00  0.50  0.50                                                             
  0.50  0.00  0.50                                                             
  0.50  0.50  0.00                                                             
%endblock LatticeVectors                                                       
 

%block LatticeVectors                                                          
  0.00  0.50  0.50                                                             
  0.50  0.00  0.50                                                             
  0.50  0.50  0.00                                                             
%endblock LatticeVectors                                                       
 
Diag.AllInOne              F     # Default value
Diag.DivideAndConquer              T     # Default value
Diag.NoExpert              F     # Default value
Diag.PreRotate              F     # Default value
Diag.Use2D              T     # Default value
SingleExcitation              F     # Default value
OccupationFunction     FD     # Default value
OccupationFunction     FD     # Default value
DM.FormattedFiles              F     # Default value
DM.FormattedInput              F     # Default value
DM.FormattedOutput              F     # Default value
Omega         0.1100000000         # Default value
On_the_fly              F     # Default value
HFX.SchwarzTolerance         0.1000000000E-05
HFX.StoreERIsTolerance         0.1000000000E-05
HFX.PairListTolerance         0.1000000000E-05
HFX.FarFieldTolerance         0.1000000000E-05
HFX.FarField              T
HFX.StoreERIs              F     # Default value
HFX.TruncateDM              T
HFX.Dynamic_parallel              F
HFX.FragSize                    10000
HFX.DumpFitData              T     # Default value
HFX.FitDataPoints            500     # Default value
HFX.MaximumNumberGaussians-S                        5
HFX.MaximumNumberGaussians-P                        4
HFX.MaximumNumberGaussians-D                        3
HFX.SeparationExponents          1.400000000    
HFX.ToleranceFit         0.1000000000E-02
HFX.UseFittedNAOs              T
HFX.GaussianEPS         0.1000000000E-04
WriteCoorXmol              F     # Default value
WriteCoorCerius              F     # Default value
WFS.Write.For.Bands              F     # Default value
BasisPressure         0.2000000000     GPa     # Default value
OpticalCalculation              F     # Default value
