Siesta Version:                                        siesta-3.2
Architecture  : x86_64-unknown-linux-gnu--unknown
Compiler flags: mpiifort -O2 -g  -assume byterecl -w -fPIC -fp-model source
PARALLEL version

* Running on  240 nodes in parallel
>> Start of run:  24-MAY-2023   5:42:17

                           ***********************       
                           *  WELCOME TO SIESTA  *       
                           ***********************       

reinit: Reading from standard input
************************** Dump of input data file ****************************
SystemName      Bulk Silisin
SystemLabel     Sibulk
NumberOfSpecies	        1
%block ChemicalSpeciesLabel
  1  14  Si
%endblock ChemicalSpeciesLabel
NumberOfAtoms           8
LatticeConstant      5.430 Ang
%block LatticeVectors
  1.00  0.00  0.00
  0.00  1.00  0.00
  0.00  0.00  1.00
%endblock LatticeVectors
AtomicCoordinatesFormat   Fractional
%block AtomicCoordinatesAndAtomicSpecies
  0.00000000000000  0.00000000000000  0.00000000000000  1
  0.00000000000000  0.50000000000000  0.50000000000000  1
  0.50000000000000  0.00000000000000  0.50000000000000  1
  0.50000000000000  0.50000000000000  0.00000000000000  1
  0.75000000000000  0.25000000000000  0.75000000000000  1
  0.25000000000000  0.25000000000000  0.25000000000000  1
  0.25000000000000  0.75000000000000  0.75000000000000  1
  0.75000000000000  0.75000000000000  0.25000000000000  1
%endblock AtomicCoordinatesAndAtomicSpecies
%block Supercell
   4   0   0
   0   4   0
   0   0   8
%endblock Supercell
kgrid.Cutoff 0. Bohr
PAO.BasisSize DZP
%block NAO2GTO
Si   5
3  0  1  5
       0.179543763     0.766529816
       1.428571429    -0.738302342
       2.000000000    -1.004566820
       2.800000000     1.982436539
       3.920000000    -0.736616451
3  0  2  5
       0.335009542     2.745919238
       0.469013358    -2.059683130
       1.883789851    -2.767628033
       2.637305791     3.385876003
       3.692228108    -1.091102315
3  1  1  4
       0.150000000     0.236476747
       0.684470842     0.803265300
       0.958259179    -0.961002579
       1.341562851     0.311032675
3  1  2  4
       0.244635090     0.486420717
       0.905208197     0.361970708
       1.267291476    -0.570942156
       1.774208066     0.219187269
3  2  1  3
       0.256969853     0.204146654
       2.078564229     0.089743383
     102.000000000     0.056704347
%endblock NAO2GTO
#WriteIonPlotFiles .true.
xc.functional      GGA    # Default vaxc.authors         HSE    # Default value
xc.authors   HSE06    # Default value
ElectronicTemperature   25 meV
MeshCutoff              150. Ry     # Equivalent planewave cutoff for the grid
MaxSCFIterations        50         # Maximum number of SCF iterations per step
DM.MixingWeight         0.3         # New DM amount for next SCF cycle
DM.Tolerance            1.d-4       # Tolerance in maximum difference
DM.NumberPulay          3          # Number of SCF steps between pulay mixing
# Eigenvalue problem: order-N or diagonalization
SolutionMethod          diagon      # OrderN or Diagon
MD.TypeOfRun            cg          # Type of dynamics:
MD.NumCGsteps  0
MD.VariableCell   .false.
MD.MaxForceTol  0.01 eV/Ang
#WriteMDXmol   .true.
WriteForces  .true.
WriteCoorStep
HFX.MinimumNumberGaussians                  3
HFX.MaximumNumberGaussians                  5
HFX.UseFittedNAOs                 T
HFX.TruncateDM                    T
HFX.FarField                      T
HFX.FarFieldTolerance     0.100E-05
HFX.PairListTolerance     0.100E-05
HFX.SchwarzTolerance      0.100E-05
HFX.StoreERIsTolerance    0.100E-05
HFX.GaussianEPS                 1.0E-05
HFX.Dynamic_parallel              T
HFX.FragSize               100000
************************** End of input data file *****************************

reinit: -----------------------------------------------------------------------
reinit: System Name: Bulk Silisin
reinit: -----------------------------------------------------------------------
reinit: System Label: Sibulk                                                      
reinit: -----------------------------------------------------------------------

initatom: Reading input for the pseudopotentials and atomic orbitals ----------
 Species number:            1  Label: Si Atomic number:          14
Ground state valence configuration:   3s02  3p02
Reading pseudopotential information in formatted form from Si.psf

Valence configuration for pseudopotential generation:
3s( 2.00) rc: 1.89
3p( 2.00) rc: 1.89
3d( 0.00) rc: 1.89
4f( 0.00) rc: 1.89
For Si, standard SIESTA heuristics set lmxkb to 3
 (one more than the basis l, including polarization orbitals).
Use PS.lmax or PS.KBprojectors blocks to override.

<basis_specs>
===============================================================================
Si                   Z=  14    Mass=  28.090        Charge= 0.17977+309
Lmxo=1 Lmxkb= 3    BasisType=split      Semic=F
L=0  Nsemic=0  Cnfigmx=3
          n=1  nzeta=2  polorb=0
            splnorm:   0.15000    
               vcte:    0.0000    
               rinn:    0.0000    
                rcs:    0.0000      0.0000    
            lambdas:    1.0000      1.0000    
L=1  Nsemic=0  Cnfigmx=3
          n=1  nzeta=2  polorb=1
            splnorm:   0.15000    
               vcte:    0.0000    
               rinn:    0.0000    
                rcs:    0.0000      0.0000    
            lambdas:    1.0000      1.0000    
-------------------------------------------------------------------------------
L=0  Nkbl=1  erefs: 0.17977+309
L=1  Nkbl=1  erefs: 0.17977+309
L=2  Nkbl=1  erefs: 0.17977+309
L=3  Nkbl=1  erefs: 0.17977+309
===============================================================================
</basis_specs>

atom: Called for Si                    (Z =  14)

read_vps: Pseudopotential generation method:
read_vps: ATM3      Troullier-Martins                       
Total valence charge:    4.00000

xc_check: Exchange-correlation functional:
xc_check: HSE06: JCP 125, 224106 (2006)
xc_check: WARNING: Pseudopotential generated with GGA Perdew, Burke & Ernzerhof 1996 functional
V l=0 = -2*Zval/r beyond r=  2.7826
V l=1 = -2*Zval/r beyond r=  2.7826
V l=2 = -2*Zval/r beyond r=  2.7826
V l=3 = -2*Zval/r beyond r=  2.7826
All V_l potentials equal beyond r=  1.8652
This should be close to max(r_c) in ps generation
All pots = -2*Zval/r beyond r=  2.7826
Using large-core scheme for Vlocal

atom: Estimated core radius    2.78258

atom: Including non-local core corrections could be a good idea
atom: Maximum radius for 4*pi*r*r*local-pseudopot. charge    3.07525
atom: Maximum radius for r*vlocal+2*Zval:    2.81758
GHOST: No ghost state for L =  0
GHOST: No ghost state for L =  1
GHOST: No ghost state for L =  2
GHOST: No ghost state for L =  3

KBgen: Kleinman-Bylander projectors: 
   l= 0   rc=  1.936440   el= -0.791474   Ekb=  4.527346   kbcos=  0.300929
   l= 1   rc=  1.936440   el= -0.300649   Ekb=  1.471620   kbcos=  0.304055
   l= 2   rc=  1.936440   el=  0.001958   Ekb= -2.865202   kbcos= -0.050894
   l= 3   rc=  1.936440   el=  0.003046   Ekb= -0.889187   kbcos= -0.005274

KBgen: Total number of  Kleinman-Bylander projectors:   16
atom: -------------------------------------------------------------------------

atom: SANKEY-TYPE ORBITALS:
atom: Selected multiple-zeta basis: split     

SPLIT: Orbitals with angular momentum L= 0

SPLIT: Basis orbitals for state 3s

SPLIT: PAO cut-off radius determined from an
SPLIT: energy shift=  0.020000 Ry

   izeta = 1
                 lambda =    1.000000
                     rc =    5.007352
                 energy =   -0.772769
                kinetic =    0.573186
    potential(screened) =   -1.345955
       potential(ionic) =   -3.804540

   izeta = 2
                 rmatch =    4.418952
              splitnorm =    0.150000
                 energy =   -0.675735
                kinetic =    0.871891
    potential(screened) =   -1.547626
       potential(ionic) =   -4.104120

SPLIT: Orbitals with angular momentum L= 1

SPLIT: Basis orbitals for state 3p

SPLIT: PAO cut-off radius determined from an
SPLIT: energy shift=  0.020000 Ry

   izeta = 1
                 lambda =    1.000000
                     rc =    6.270866
                 energy =   -0.282609
                kinetic =    0.876409
    potential(screened) =   -1.159018
       potential(ionic) =   -3.411547

   izeta = 2
                 rmatch =    5.007352
              splitnorm =    0.150000
                 energy =   -0.188900
                kinetic =    1.263886
    potential(screened) =   -1.452786
       potential(ionic) =   -3.887248

POLgen: Perturbative polarization orbital with L=  2

POLgen: Polarization orbital for state 3p

   izeta = 1
                     rc =    6.270866
                 energy =    0.439455
                kinetic =    1.304724
    potential(screened) =   -0.865269
       potential(ionic) =   -2.934348
atom: Total number of Sankey-type orbitals: 13

atm_pop: Valence configuration (for local Pseudopot. screening):
 3s( 2.00)                                                            
 3p( 2.00)                                                            
Vna: chval, zval:    4.00000   4.00000

Vna:  Cut-off radius for the neutral-atom potential:   6.270866

atom: _________________________________________________________________________

prinput: Basis input ----------------------------------------------------------

PAO.BasisType split     

%block ChemicalSpeciesLabel
    1   14 Si                      # Species index, atomic number, species label
%endblock ChemicalSpeciesLabel

%block PAO.Basis                 # Define Basis set
Si                    2                    # Species label, number of l-shells
 n=3   0   2                         # n, l, Nzeta 
   5.007      4.419   
   1.000      1.000   
 n=3   1   2 P   1                   # n, l, Nzeta, Polarization, NzetaPol
   6.271      5.007   
   1.000      1.000   
%endblock PAO.Basis

prinput: ----------------------------------------------------------------------

 Read NAO2GTO from input fdf file
nao2gto_transfer: isp, inlz, ipgf, pgf_radius =     1    1    1     8.00770
nao2gto_transfer: isp, inlz, ipgf, pgf_radius =     1    1    2     2.83885
nao2gto_transfer: isp, inlz, ipgf, pgf_radius =     1    1    3     2.39926
nao2gto_transfer: isp, inlz, ipgf, pgf_radius =     1    1    4     2.02775
nao2gto_transfer: isp, inlz, ipgf, pgf_radius =     1    1    5     1.71376
nao2gto_transfer: is, inlz, fittedcut, origincut =     1    1     8.00770     5.00735
nao2gto_transfer: isp, inlz, ipgf, pgf_radius =     1    2    1     5.86225
nao2gto_transfer: isp, inlz, ipgf, pgf_radius =     1    2    2     4.95450
nao2gto_transfer: isp, inlz, ipgf, pgf_radius =     1    2    3     2.47216
nao2gto_transfer: isp, inlz, ipgf, pgf_radius =     1    2    4     2.08936
nao2gto_transfer: isp, inlz, ipgf, pgf_radius =     1    2    5     1.76583
nao2gto_transfer: is, inlz, fittedcut, origincut =     1    2     5.86225     4.41895
nao2gto_transfer: isp, inlz, ipgf, pgf_radius =     1    3    1     9.58222
nao2gto_transfer: isp, inlz, ipgf, pgf_radius =     1    3    2     4.35545
nao2gto_transfer: isp, inlz, ipgf, pgf_radius =     1    3    3     3.65613
nao2gto_transfer: isp, inlz, ipgf, pgf_radius =     1    3    4     3.06880
nao2gto_transfer: is, inlz, fittedcut, origincut =     1    3     9.58222     6.27087
nao2gto_transfer: isp, inlz, ipgf, pgf_radius =     1    4    1     7.43383
nao2gto_transfer: isp, inlz, ipgf, pgf_radius =     1    4    2     3.76609
nao2gto_transfer: isp, inlz, ipgf, pgf_radius =     1    4    3     3.16115
nao2gto_transfer: isp, inlz, ipgf, pgf_radius =     1    4    4     2.65311
nao2gto_transfer: is, inlz, fittedcut, origincut =     1    4     7.43383     5.00735
nao2gto_transfer: isp, inlz, ipgf, pgf_radius =     1    5    1     7.79657
nao2gto_transfer: isp, inlz, ipgf, pgf_radius =     1    5    2     2.53664
nao2gto_transfer: isp, inlz, ipgf, pgf_radius =     1    5    3     0.29862
nao2gto_transfer: is, inlz, fittedcut, origincut =     1    5     7.79657     6.27087
%block NAO2GTO
Si   5
3  0  1  5
       0.179543763     0.766529816
       1.428571429    -0.738302342
       2.000000000    -1.004566820
       2.800000000     1.982436539
       3.920000000    -0.736616451
3  0  2  5
       0.335009542     2.745919238
       0.469013358    -2.059683130
       1.883789851    -2.767628033
       2.637305791     3.385876003
       3.692228108    -1.091102315
3  1  1  4
       0.150000000     0.236476747
       0.684470842     0.803265300
       0.958259179    -0.961002579
       1.341562851     0.311032675
3  1  2  4
       0.244635090     0.486420717
       0.905208197     0.361970708
       1.267291476    -0.570942156
       1.774208066     0.219187269
3  2  1  3
       0.256969853     0.204146654
       2.078564229     0.089743383
     102.000000000     0.056704347
%endblock NAO2GTO
 Use fitted NAOs as new basis
coor:   Atomic-coordinates input format  =     Fractional

siesta: Atomic coordinates (Bohr) and species
siesta:      0.00000   0.00000   0.00000  1        1
siesta:      0.00000   5.13061   5.13061  1        2
siesta:      5.13061   0.00000   5.13061  1        3
siesta:      5.13061   5.13061   0.00000  1        4
siesta:      7.69591   2.56530   7.69591  1        5
siesta:      2.56530   2.56530   2.56530  1        6
siesta:      2.56530   7.69591   7.69591  1        7
siesta:      7.69591   7.69591   2.56530  1        8
siesta:     10.26122   0.00000   0.00000  1        9
siesta:     10.26122   5.13061   5.13061  1       10
siesta:     15.39183   0.00000   5.13061  1       11
siesta:     15.39183   5.13061   0.00000  1       12
siesta:     17.95713   2.56530   7.69591  1       13
siesta:     12.82652   2.56530   2.56530  1       14
siesta:     12.82652   7.69591   7.69591  1       15
siesta:     17.95713   7.69591   2.56530  1       16
siesta:     20.52243   0.00000   0.00000  1       17
siesta:     20.52243   5.13061   5.13061  1       18
siesta:     25.65304   0.00000   5.13061  1       19
siesta:     25.65304   5.13061   0.00000  1       20
siesta:     28.21835   2.56530   7.69591  1       21
siesta:     23.08774   2.56530   2.56530  1       22
siesta:     23.08774   7.69591   7.69591  1       23
siesta:     28.21835   7.69591   2.56530  1       24
siesta:     30.78365   0.00000   0.00000  1       25
siesta:     30.78365   5.13061   5.13061  1       26
siesta:     35.91426   0.00000   5.13061  1       27
siesta:     35.91426   5.13061   0.00000  1       28
siesta:     38.47956   2.56530   7.69591  1       29
siesta:     33.34896   2.56530   2.56530  1       30
siesta:     33.34896   7.69591   7.69591  1       31
siesta:     38.47956   7.69591   2.56530  1       32
siesta:      0.00000  10.26122   0.00000  1       33
siesta:      0.00000  15.39183   5.13061  1       34
siesta:      5.13061  10.26122   5.13061  1       35
siesta:      5.13061  15.39183   0.00000  1       36
siesta:      7.69591  12.82652   7.69591  1       37
siesta:      2.56530  12.82652   2.56530  1       38
siesta:      2.56530  17.95713   7.69591  1       39
siesta:      7.69591  17.95713   2.56530  1       40
siesta:     10.26122  10.26122   0.00000  1       41
siesta:     10.26122  15.39183   5.13061  1       42
siesta:     15.39183  10.26122   5.13061  1       43
siesta:     15.39183  15.39183   0.00000  1       44
siesta:     17.95713  12.82652   7.69591  1       45
siesta:     12.82652  12.82652   2.56530  1       46
siesta:     12.82652  17.95713   7.69591  1       47
siesta:     17.95713  17.95713   2.56530  1       48
siesta:     20.52243  10.26122   0.00000  1       49
siesta:     20.52243  15.39183   5.13061  1       50
siesta:     25.65304  10.26122   5.13061  1       51
siesta:     25.65304  15.39183   0.00000  1       52
siesta:     28.21835  12.82652   7.69591  1       53
siesta:     23.08774  12.82652   2.56530  1       54
siesta:     23.08774  17.95713   7.69591  1       55
siesta:     28.21835  17.95713   2.56530  1       56
siesta:     30.78365  10.26122   0.00000  1       57
siesta:     30.78365  15.39183   5.13061  1       58
siesta:     35.91426  10.26122   5.13061  1       59
siesta:     35.91426  15.39183   0.00000  1       60
siesta:     38.47956  12.82652   7.69591  1       61
siesta:     33.34896  12.82652   2.56530  1       62
siesta:     33.34896  17.95713   7.69591  1       63
siesta:     38.47956  17.95713   2.56530  1       64
siesta:      0.00000  20.52243   0.00000  1       65
siesta:      0.00000  25.65304   5.13061  1       66
siesta:      5.13061  20.52243   5.13061  1       67
siesta:      5.13061  25.65304   0.00000  1       68
siesta:      7.69591  23.08774   7.69591  1       69
siesta:      2.56530  23.08774   2.56530  1       70
siesta:      2.56530  28.21835   7.69591  1       71
siesta:      7.69591  28.21835   2.56530  1       72
siesta:     10.26122  20.52243   0.00000  1       73
siesta:     10.26122  25.65304   5.13061  1       74
siesta:     15.39183  20.52243   5.13061  1       75
siesta:     15.39183  25.65304   0.00000  1       76
siesta:     17.95713  23.08774   7.69591  1       77
siesta:     12.82652  23.08774   2.56530  1       78
siesta:     12.82652  28.21835   7.69591  1       79
siesta:     17.95713  28.21835   2.56530  1       80
siesta:     20.52243  20.52243   0.00000  1       81
siesta:     20.52243  25.65304   5.13061  1       82
siesta:     25.65304  20.52243   5.13061  1       83
siesta:     25.65304  25.65304   0.00000  1       84
siesta:     28.21835  23.08774   7.69591  1       85
siesta:     23.08774  23.08774   2.56530  1       86
siesta:     23.08774  28.21835   7.69591  1       87
siesta:     28.21835  28.21835   2.56530  1       88
siesta:     30.78365  20.52243   0.00000  1       89
siesta:     30.78365  25.65304   5.13061  1       90
siesta:     35.91426  20.52243   5.13061  1       91
siesta:     35.91426  25.65304   0.00000  1       92
siesta:     38.47956  23.08774   7.69591  1       93
siesta:     33.34896  23.08774   2.56530  1       94
siesta:     33.34896  28.21835   7.69591  1       95
siesta:     38.47956  28.21835   2.56530  1       96
siesta:      0.00000  30.78365   0.00000  1       97
siesta:      0.00000  35.91426   5.13061  1       98
siesta:      5.13061  30.78365   5.13061  1       99
siesta:      5.13061  35.91426   0.00000  1      100
siesta:      7.69591  33.34896   7.69591  1      101
siesta:      2.56530  33.34896   2.56530  1      102
siesta:      2.56530  38.47956   7.69591  1      103
siesta:      7.69591  38.47956   2.56530  1      104
siesta:     10.26122  30.78365   0.00000  1      105
siesta:     10.26122  35.91426   5.13061  1      106
siesta:     15.39183  30.78365   5.13061  1      107
siesta:     15.39183  35.91426   0.00000  1      108
siesta:     17.95713  33.34896   7.69591  1      109
siesta:     12.82652  33.34896   2.56530  1      110
siesta:     12.82652  38.47956   7.69591  1      111
siesta:     17.95713  38.47956   2.56530  1      112
siesta:     20.52243  30.78365   0.00000  1      113
siesta:     20.52243  35.91426   5.13061  1      114
siesta:     25.65304  30.78365   5.13061  1      115
siesta:     25.65304  35.91426   0.00000  1      116
siesta:     28.21835  33.34896   7.69591  1      117
siesta:     23.08774  33.34896   2.56530  1      118
siesta:     23.08774  38.47956   7.69591  1      119
siesta:     28.21835  38.47956   2.56530  1      120
siesta:     30.78365  30.78365   0.00000  1      121
siesta:     30.78365  35.91426   5.13061  1      122
siesta:     35.91426  30.78365   5.13061  1      123
siesta:     35.91426  35.91426   0.00000  1      124
siesta:     38.47956  33.34896   7.69591  1      125
siesta:     33.34896  33.34896   2.56530  1      126
siesta:     33.34896  38.47956   7.69591  1      127
siesta:     38.47956  38.47956   2.56530  1      128
siesta:      0.00000   0.00000  10.26122  1      129
siesta:      0.00000   5.13061  15.39183  1      130
siesta:      5.13061   0.00000  15.39183  1      131
siesta:      5.13061   5.13061  10.26122  1      132
siesta:      7.69591   2.56530  17.95713  1      133
siesta:      2.56530   2.56530  12.82652  1      134
siesta:      2.56530   7.69591  17.95713  1      135
siesta:      7.69591   7.69591  12.82652  1      136
siesta:     10.26122   0.00000  10.26122  1      137
siesta:     10.26122   5.13061  15.39183  1      138
siesta:     15.39183   0.00000  15.39183  1      139
siesta:     15.39183   5.13061  10.26122  1      140
siesta:     17.95713   2.56530  17.95713  1      141
siesta:     12.82652   2.56530  12.82652  1      142
siesta:     12.82652   7.69591  17.95713  1      143
siesta:     17.95713   7.69591  12.82652  1      144
siesta:     20.52243   0.00000  10.26122  1      145
siesta:     20.52243   5.13061  15.39183  1      146
siesta:     25.65304   0.00000  15.39183  1      147
siesta:     25.65304   5.13061  10.26122  1      148
siesta:     28.21835   2.56530  17.95713  1      149
siesta:     23.08774   2.56530  12.82652  1      150
siesta:     23.08774   7.69591  17.95713  1      151
siesta:     28.21835   7.69591  12.82652  1      152
siesta:     30.78365   0.00000  10.26122  1      153
siesta:     30.78365   5.13061  15.39183  1      154
siesta:     35.91426   0.00000  15.39183  1      155
siesta:     35.91426   5.13061  10.26122  1      156
siesta:     38.47956   2.56530  17.95713  1      157
siesta:     33.34896   2.56530  12.82652  1      158
siesta:     33.34896   7.69591  17.95713  1      159
siesta:     38.47956   7.69591  12.82652  1      160
siesta:      0.00000  10.26122  10.26122  1      161
siesta:      0.00000  15.39183  15.39183  1      162
siesta:      5.13061  10.26122  15.39183  1      163
siesta:      5.13061  15.39183  10.26122  1      164
siesta:      7.69591  12.82652  17.95713  1      165
siesta:      2.56530  12.82652  12.82652  1      166
siesta:      2.56530  17.95713  17.95713  1      167
siesta:      7.69591  17.95713  12.82652  1      168
siesta:     10.26122  10.26122  10.26122  1      169
siesta:     10.26122  15.39183  15.39183  1      170
siesta:     15.39183  10.26122  15.39183  1      171
siesta:     15.39183  15.39183  10.26122  1      172
siesta:     17.95713  12.82652  17.95713  1      173
siesta:     12.82652  12.82652  12.82652  1      174
siesta:     12.82652  17.95713  17.95713  1      175
siesta:     17.95713  17.95713  12.82652  1      176
siesta:     20.52243  10.26122  10.26122  1      177
siesta:     20.52243  15.39183  15.39183  1      178
siesta:     25.65304  10.26122  15.39183  1      179
siesta:     25.65304  15.39183  10.26122  1      180
siesta:     28.21835  12.82652  17.95713  1      181
siesta:     23.08774  12.82652  12.82652  1      182
siesta:     23.08774  17.95713  17.95713  1      183
siesta:     28.21835  17.95713  12.82652  1      184
siesta:     30.78365  10.26122  10.26122  1      185
siesta:     30.78365  15.39183  15.39183  1      186
siesta:     35.91426  10.26122  15.39183  1      187
siesta:     35.91426  15.39183  10.26122  1      188
siesta:     38.47956  12.82652  17.95713  1      189
siesta:     33.34896  12.82652  12.82652  1      190
siesta:     33.34896  17.95713  17.95713  1      191
siesta:     38.47956  17.95713  12.82652  1      192
siesta:      0.00000  20.52243  10.26122  1      193
siesta:      0.00000  25.65304  15.39183  1      194
siesta:      5.13061  20.52243  15.39183  1      195
siesta:      5.13061  25.65304  10.26122  1      196
siesta:      7.69591  23.08774  17.95713  1      197
siesta:      2.56530  23.08774  12.82652  1      198
siesta:      2.56530  28.21835  17.95713  1      199
siesta:      7.69591  28.21835  12.82652  1      200
siesta:     10.26122  20.52243  10.26122  1      201
siesta:     10.26122  25.65304  15.39183  1      202
siesta:     15.39183  20.52243  15.39183  1      203
siesta:     15.39183  25.65304  10.26122  1      204
siesta:     17.95713  23.08774  17.95713  1      205
siesta:     12.82652  23.08774  12.82652  1      206
siesta:     12.82652  28.21835  17.95713  1      207
siesta:     17.95713  28.21835  12.82652  1      208
siesta:     20.52243  20.52243  10.26122  1      209
siesta:     20.52243  25.65304  15.39183  1      210
siesta:     25.65304  20.52243  15.39183  1      211
siesta:     25.65304  25.65304  10.26122  1      212
siesta:     28.21835  23.08774  17.95713  1      213
siesta:     23.08774  23.08774  12.82652  1      214
siesta:     23.08774  28.21835  17.95713  1      215
siesta:     28.21835  28.21835  12.82652  1      216
siesta:     30.78365  20.52243  10.26122  1      217
siesta:     30.78365  25.65304  15.39183  1      218
siesta:     35.91426  20.52243  15.39183  1      219
siesta:     35.91426  25.65304  10.26122  1      220
siesta:     38.47956  23.08774  17.95713  1      221
siesta:     33.34896  23.08774  12.82652  1      222
siesta:     33.34896  28.21835  17.95713  1      223
siesta:     38.47956  28.21835  12.82652  1      224
siesta:      0.00000  30.78365  10.26122  1      225
siesta:      0.00000  35.91426  15.39183  1      226
siesta:      5.13061  30.78365  15.39183  1      227
siesta:      5.13061  35.91426  10.26122  1      228
siesta:      7.69591  33.34896  17.95713  1      229
siesta:      2.56530  33.34896  12.82652  1      230
siesta:      2.56530  38.47956  17.95713  1      231
siesta:      7.69591  38.47956  12.82652  1      232
siesta:     10.26122  30.78365  10.26122  1      233
siesta:     10.26122  35.91426  15.39183  1      234
siesta:     15.39183  30.78365  15.39183  1      235
siesta:     15.39183  35.91426  10.26122  1      236
siesta:     17.95713  33.34896  17.95713  1      237
siesta:     12.82652  33.34896  12.82652  1      238
siesta:     12.82652  38.47956  17.95713  1      239
siesta:     17.95713  38.47956  12.82652  1      240
siesta:     20.52243  30.78365  10.26122  1      241
siesta:     20.52243  35.91426  15.39183  1      242
siesta:     25.65304  30.78365  15.39183  1      243
siesta:     25.65304  35.91426  10.26122  1      244
siesta:     28.21835  33.34896  17.95713  1      245
siesta:     23.08774  33.34896  12.82652  1      246
siesta:     23.08774  38.47956  17.95713  1      247
siesta:     28.21835  38.47956  12.82652  1      248
siesta:     30.78365  30.78365  10.26122  1      249
siesta:     30.78365  35.91426  15.39183  1      250
siesta:     35.91426  30.78365  15.39183  1      251
siesta:     35.91426  35.91426  10.26122  1      252
siesta:     38.47956  33.34896  17.95713  1      253
siesta:     33.34896  33.34896  12.82652  1      254
siesta:     33.34896  38.47956  17.95713  1      255
siesta:     38.47956  38.47956  12.82652  1      256
siesta:      0.00000   0.00000  20.52243  1      257
siesta:      0.00000   5.13061  25.65304  1      258
siesta:      5.13061   0.00000  25.65304  1      259
siesta:      5.13061   5.13061  20.52243  1      260
siesta:      7.69591   2.56530  28.21835  1      261
siesta:      2.56530   2.56530  23.08774  1      262
siesta:      2.56530   7.69591  28.21835  1      263
siesta:      7.69591   7.69591  23.08774  1      264
siesta:     10.26122   0.00000  20.52243  1      265
siesta:     10.26122   5.13061  25.65304  1      266
siesta:     15.39183   0.00000  25.65304  1      267
siesta:     15.39183   5.13061  20.52243  1      268
siesta:     17.95713   2.56530  28.21835  1      269
siesta:     12.82652   2.56530  23.08774  1      270
siesta:     12.82652   7.69591  28.21835  1      271
siesta:     17.95713   7.69591  23.08774  1      272
siesta:     20.52243   0.00000  20.52243  1      273
siesta:     20.52243   5.13061  25.65304  1      274
siesta:     25.65304   0.00000  25.65304  1      275
siesta:     25.65304   5.13061  20.52243  1      276
siesta:     28.21835   2.56530  28.21835  1      277
siesta:     23.08774   2.56530  23.08774  1      278
siesta:     23.08774   7.69591  28.21835  1      279
siesta:     28.21835   7.69591  23.08774  1      280
siesta:     30.78365   0.00000  20.52243  1      281
siesta:     30.78365   5.13061  25.65304  1      282
siesta:     35.91426   0.00000  25.65304  1      283
siesta:     35.91426   5.13061  20.52243  1      284
siesta:     38.47956   2.56530  28.21835  1      285
siesta:     33.34896   2.56530  23.08774  1      286
siesta:     33.34896   7.69591  28.21835  1      287
siesta:     38.47956   7.69591  23.08774  1      288
siesta:      0.00000  10.26122  20.52243  1      289
siesta:      0.00000  15.39183  25.65304  1      290
siesta:      5.13061  10.26122  25.65304  1      291
siesta:      5.13061  15.39183  20.52243  1      292
siesta:      7.69591  12.82652  28.21835  1      293
siesta:      2.56530  12.82652  23.08774  1      294
siesta:      2.56530  17.95713  28.21835  1      295
siesta:      7.69591  17.95713  23.08774  1      296
siesta:     10.26122  10.26122  20.52243  1      297
siesta:     10.26122  15.39183  25.65304  1      298
siesta:     15.39183  10.26122  25.65304  1      299
siesta:     15.39183  15.39183  20.52243  1      300
siesta:     17.95713  12.82652  28.21835  1      301
siesta:     12.82652  12.82652  23.08774  1      302
siesta:     12.82652  17.95713  28.21835  1      303
siesta:     17.95713  17.95713  23.08774  1      304
siesta:     20.52243  10.26122  20.52243  1      305
siesta:     20.52243  15.39183  25.65304  1      306
siesta:     25.65304  10.26122  25.65304  1      307
siesta:     25.65304  15.39183  20.52243  1      308
siesta:     28.21835  12.82652  28.21835  1      309
siesta:     23.08774  12.82652  23.08774  1      310
siesta:     23.08774  17.95713  28.21835  1      311
siesta:     28.21835  17.95713  23.08774  1      312
siesta:     30.78365  10.26122  20.52243  1      313
siesta:     30.78365  15.39183  25.65304  1      314
siesta:     35.91426  10.26122  25.65304  1      315
siesta:     35.91426  15.39183  20.52243  1      316
siesta:     38.47956  12.82652  28.21835  1      317
siesta:     33.34896  12.82652  23.08774  1      318
siesta:     33.34896  17.95713  28.21835  1      319
siesta:     38.47956  17.95713  23.08774  1      320
siesta:      0.00000  20.52243  20.52243  1      321
siesta:      0.00000  25.65304  25.65304  1      322
siesta:      5.13061  20.52243  25.65304  1      323
siesta:      5.13061  25.65304  20.52243  1      324
siesta:      7.69591  23.08774  28.21835  1      325
siesta:      2.56530  23.08774  23.08774  1      326
siesta:      2.56530  28.21835  28.21835  1      327
siesta:      7.69591  28.21835  23.08774  1      328
siesta:     10.26122  20.52243  20.52243  1      329
siesta:     10.26122  25.65304  25.65304  1      330
siesta:     15.39183  20.52243  25.65304  1      331
siesta:     15.39183  25.65304  20.52243  1      332
siesta:     17.95713  23.08774  28.21835  1      333
siesta:     12.82652  23.08774  23.08774  1      334
siesta:     12.82652  28.21835  28.21835  1      335
siesta:     17.95713  28.21835  23.08774  1      336
siesta:     20.52243  20.52243  20.52243  1      337
siesta:     20.52243  25.65304  25.65304  1      338
siesta:     25.65304  20.52243  25.65304  1      339
siesta:     25.65304  25.65304  20.52243  1      340
siesta:     28.21835  23.08774  28.21835  1      341
siesta:     23.08774  23.08774  23.08774  1      342
siesta:     23.08774  28.21835  28.21835  1      343
siesta:     28.21835  28.21835  23.08774  1      344
siesta:     30.78365  20.52243  20.52243  1      345
siesta:     30.78365  25.65304  25.65304  1      346
siesta:     35.91426  20.52243  25.65304  1      347
siesta:     35.91426  25.65304  20.52243  1      348
siesta:     38.47956  23.08774  28.21835  1      349
siesta:     33.34896  23.08774  23.08774  1      350
siesta:     33.34896  28.21835  28.21835  1      351
siesta:     38.47956  28.21835  23.08774  1      352
siesta:      0.00000  30.78365  20.52243  1      353
siesta:      0.00000  35.91426  25.65304  1      354
siesta:      5.13061  30.78365  25.65304  1      355
siesta:      5.13061  35.91426  20.52243  1      356
siesta:      7.69591  33.34896  28.21835  1      357
siesta:      2.56530  33.34896  23.08774  1      358
siesta:      2.56530  38.47956  28.21835  1      359
siesta:      7.69591  38.47956  23.08774  1      360
siesta:     10.26122  30.78365  20.52243  1      361
siesta:     10.26122  35.91426  25.65304  1      362
siesta:     15.39183  30.78365  25.65304  1      363
siesta:     15.39183  35.91426  20.52243  1      364
siesta:     17.95713  33.34896  28.21835  1      365
siesta:     12.82652  33.34896  23.08774  1      366
siesta:     12.82652  38.47956  28.21835  1      367
siesta:     17.95713  38.47956  23.08774  1      368
siesta:     20.52243  30.78365  20.52243  1      369
siesta:     20.52243  35.91426  25.65304  1      370
siesta:     25.65304  30.78365  25.65304  1      371
siesta:     25.65304  35.91426  20.52243  1      372
siesta:     28.21835  33.34896  28.21835  1      373
siesta:     23.08774  33.34896  23.08774  1      374
siesta:     23.08774  38.47956  28.21835  1      375
siesta:     28.21835  38.47956  23.08774  1      376
siesta:     30.78365  30.78365  20.52243  1      377
siesta:     30.78365  35.91426  25.65304  1      378
siesta:     35.91426  30.78365  25.65304  1      379
siesta:     35.91426  35.91426  20.52243  1      380
siesta:     38.47956  33.34896  28.21835  1      381
siesta:     33.34896  33.34896  23.08774  1      382
siesta:     33.34896  38.47956  28.21835  1      383
siesta:     38.47956  38.47956  23.08774  1      384
siesta:      0.00000   0.00000  30.78365  1      385
siesta:      0.00000   5.13061  35.91426  1      386
siesta:      5.13061   0.00000  35.91426  1      387
siesta:      5.13061   5.13061  30.78365  1      388
siesta:      7.69591   2.56530  38.47956  1      389
siesta:      2.56530   2.56530  33.34896  1      390
siesta:      2.56530   7.69591  38.47956  1      391
siesta:      7.69591   7.69591  33.34896  1      392
siesta:     10.26122   0.00000  30.78365  1      393
siesta:     10.26122   5.13061  35.91426  1      394
siesta:     15.39183   0.00000  35.91426  1      395
siesta:     15.39183   5.13061  30.78365  1      396
siesta:     17.95713   2.56530  38.47956  1      397
siesta:     12.82652   2.56530  33.34896  1      398
siesta:     12.82652   7.69591  38.47956  1      399
siesta:     17.95713   7.69591  33.34896  1      400
siesta:     20.52243   0.00000  30.78365  1      401
siesta:     20.52243   5.13061  35.91426  1      402
siesta:     25.65304   0.00000  35.91426  1      403
siesta:     25.65304   5.13061  30.78365  1      404
siesta:     28.21835   2.56530  38.47956  1      405
siesta:     23.08774   2.56530  33.34896  1      406
siesta:     23.08774   7.69591  38.47956  1      407
siesta:     28.21835   7.69591  33.34896  1      408
siesta:     30.78365   0.00000  30.78365  1      409
siesta:     30.78365   5.13061  35.91426  1      410
siesta:     35.91426   0.00000  35.91426  1      411
siesta:     35.91426   5.13061  30.78365  1      412
siesta:     38.47956   2.56530  38.47956  1      413
siesta:     33.34896   2.56530  33.34896  1      414
siesta:     33.34896   7.69591  38.47956  1      415
siesta:     38.47956   7.69591  33.34896  1      416
siesta:      0.00000  10.26122  30.78365  1      417
siesta:      0.00000  15.39183  35.91426  1      418
siesta:      5.13061  10.26122  35.91426  1      419
siesta:      5.13061  15.39183  30.78365  1      420
siesta:      7.69591  12.82652  38.47956  1      421
siesta:      2.56530  12.82652  33.34896  1      422
siesta:      2.56530  17.95713  38.47956  1      423
siesta:      7.69591  17.95713  33.34896  1      424
siesta:     10.26122  10.26122  30.78365  1      425
siesta:     10.26122  15.39183  35.91426  1      426
siesta:     15.39183  10.26122  35.91426  1      427
siesta:     15.39183  15.39183  30.78365  1      428
siesta:     17.95713  12.82652  38.47956  1      429
siesta:     12.82652  12.82652  33.34896  1      430
siesta:     12.82652  17.95713  38.47956  1      431
siesta:     17.95713  17.95713  33.34896  1      432
siesta:     20.52243  10.26122  30.78365  1      433
siesta:     20.52243  15.39183  35.91426  1      434
siesta:     25.65304  10.26122  35.91426  1      435
siesta:     25.65304  15.39183  30.78365  1      436
siesta:     28.21835  12.82652  38.47956  1      437
siesta:     23.08774  12.82652  33.34896  1      438
siesta:     23.08774  17.95713  38.47956  1      439
siesta:     28.21835  17.95713  33.34896  1      440
siesta:     30.78365  10.26122  30.78365  1      441
siesta:     30.78365  15.39183  35.91426  1      442
siesta:     35.91426  10.26122  35.91426  1      443
siesta:     35.91426  15.39183  30.78365  1      444
siesta:     38.47956  12.82652  38.47956  1      445
siesta:     33.34896  12.82652  33.34896  1      446
siesta:     33.34896  17.95713  38.47956  1      447
siesta:     38.47956  17.95713  33.34896  1      448
siesta:      0.00000  20.52243  30.78365  1      449
siesta:      0.00000  25.65304  35.91426  1      450
siesta:      5.13061  20.52243  35.91426  1      451
siesta:      5.13061  25.65304  30.78365  1      452
siesta:      7.69591  23.08774  38.47956  1      453
siesta:      2.56530  23.08774  33.34896  1      454
siesta:      2.56530  28.21835  38.47956  1      455
siesta:      7.69591  28.21835  33.34896  1      456
siesta:     10.26122  20.52243  30.78365  1      457
siesta:     10.26122  25.65304  35.91426  1      458
siesta:     15.39183  20.52243  35.91426  1      459
siesta:     15.39183  25.65304  30.78365  1      460
siesta:     17.95713  23.08774  38.47956  1      461
siesta:     12.82652  23.08774  33.34896  1      462
siesta:     12.82652  28.21835  38.47956  1      463
siesta:     17.95713  28.21835  33.34896  1      464
siesta:     20.52243  20.52243  30.78365  1      465
siesta:     20.52243  25.65304  35.91426  1      466
siesta:     25.65304  20.52243  35.91426  1      467
siesta:     25.65304  25.65304  30.78365  1      468
siesta:     28.21835  23.08774  38.47956  1      469
siesta:     23.08774  23.08774  33.34896  1      470
siesta:     23.08774  28.21835  38.47956  1      471
siesta:     28.21835  28.21835  33.34896  1      472
siesta:     30.78365  20.52243  30.78365  1      473
siesta:     30.78365  25.65304  35.91426  1      474
siesta:     35.91426  20.52243  35.91426  1      475
siesta:     35.91426  25.65304  30.78365  1      476
siesta:     38.47956  23.08774  38.47956  1      477
siesta:     33.34896  23.08774  33.34896  1      478
siesta:     33.34896  28.21835  38.47956  1      479
siesta:     38.47956  28.21835  33.34896  1      480
siesta:      0.00000  30.78365  30.78365  1      481
siesta:      0.00000  35.91426  35.91426  1      482
siesta:      5.13061  30.78365  35.91426  1      483
siesta:      5.13061  35.91426  30.78365  1      484
siesta:      7.69591  33.34896  38.47956  1      485
siesta:      2.56530  33.34896  33.34896  1      486
siesta:      2.56530  38.47956  38.47956  1      487
siesta:      7.69591  38.47956  33.34896  1      488
siesta:     10.26122  30.78365  30.78365  1      489
siesta:     10.26122  35.91426  35.91426  1      490
siesta:     15.39183  30.78365  35.91426  1      491
siesta:     15.39183  35.91426  30.78365  1      492
siesta:     17.95713  33.34896  38.47956  1      493
siesta:     12.82652  33.34896  33.34896  1      494
siesta:     12.82652  38.47956  38.47956  1      495
siesta:     17.95713  38.47956  33.34896  1      496
siesta:     20.52243  30.78365  30.78365  1      497
siesta:     20.52243  35.91426  35.91426  1      498
siesta:     25.65304  30.78365  35.91426  1      499
siesta:     25.65304  35.91426  30.78365  1      500
siesta:     28.21835  33.34896  38.47956  1      501
siesta:     23.08774  33.34896  33.34896  1      502
siesta:     23.08774  38.47956  38.47956  1      503
siesta:     28.21835  38.47956  33.34896  1      504
siesta:     30.78365  30.78365  30.78365  1      505
siesta:     30.78365  35.91426  35.91426  1      506
siesta:     35.91426  30.78365  35.91426  1      507
siesta:     35.91426  35.91426  30.78365  1      508
siesta:     38.47956  33.34896  38.47956  1      509
siesta:     33.34896  33.34896  33.34896  1      510
siesta:     33.34896  38.47956  38.47956  1      511
siesta:     38.47956  38.47956  33.34896  1      512
siesta:      0.00000   0.00000  41.04487  1      513
siesta:      0.00000   5.13061  46.17548  1      514
siesta:      5.13061   0.00000  46.17548  1      515
siesta:      5.13061   5.13061  41.04487  1      516
siesta:      7.69591   2.56530  48.74078  1      517
siesta:      2.56530   2.56530  43.61017  1      518
siesta:      2.56530   7.69591  48.74078  1      519
siesta:      7.69591   7.69591  43.61017  1      520
siesta:     10.26122   0.00000  41.04487  1      521
siesta:     10.26122   5.13061  46.17548  1      522
siesta:     15.39183   0.00000  46.17548  1      523
siesta:     15.39183   5.13061  41.04487  1      524
siesta:     17.95713   2.56530  48.74078  1      525
siesta:     12.82652   2.56530  43.61017  1      526
siesta:     12.82652   7.69591  48.74078  1      527
siesta:     17.95713   7.69591  43.61017  1      528
siesta:     20.52243   0.00000  41.04487  1      529
siesta:     20.52243   5.13061  46.17548  1      530
siesta:     25.65304   0.00000  46.17548  1      531
siesta:     25.65304   5.13061  41.04487  1      532
siesta:     28.21835   2.56530  48.74078  1      533
siesta:     23.08774   2.56530  43.61017  1      534
siesta:     23.08774   7.69591  48.74078  1      535
siesta:     28.21835   7.69591  43.61017  1      536
siesta:     30.78365   0.00000  41.04487  1      537
siesta:     30.78365   5.13061  46.17548  1      538
siesta:     35.91426   0.00000  46.17548  1      539
siesta:     35.91426   5.13061  41.04487  1      540
siesta:     38.47956   2.56530  48.74078  1      541
siesta:     33.34896   2.56530  43.61017  1      542
siesta:     33.34896   7.69591  48.74078  1      543
siesta:     38.47956   7.69591  43.61017  1      544
siesta:      0.00000  10.26122  41.04487  1      545
siesta:      0.00000  15.39183  46.17548  1      546
siesta:      5.13061  10.26122  46.17548  1      547
siesta:      5.13061  15.39183  41.04487  1      548
siesta:      7.69591  12.82652  48.74078  1      549
siesta:      2.56530  12.82652  43.61017  1      550
siesta:      2.56530  17.95713  48.74078  1      551
siesta:      7.69591  17.95713  43.61017  1      552
siesta:     10.26122  10.26122  41.04487  1      553
siesta:     10.26122  15.39183  46.17548  1      554
siesta:     15.39183  10.26122  46.17548  1      555
siesta:     15.39183  15.39183  41.04487  1      556
siesta:     17.95713  12.82652  48.74078  1      557
siesta:     12.82652  12.82652  43.61017  1      558
siesta:     12.82652  17.95713  48.74078  1      559
siesta:     17.95713  17.95713  43.61017  1      560
siesta:     20.52243  10.26122  41.04487  1      561
siesta:     20.52243  15.39183  46.17548  1      562
siesta:     25.65304  10.26122  46.17548  1      563
siesta:     25.65304  15.39183  41.04487  1      564
siesta:     28.21835  12.82652  48.74078  1      565
siesta:     23.08774  12.82652  43.61017  1      566
siesta:     23.08774  17.95713  48.74078  1      567
siesta:     28.21835  17.95713  43.61017  1      568
siesta:     30.78365  10.26122  41.04487  1      569
siesta:     30.78365  15.39183  46.17548  1      570
siesta:     35.91426  10.26122  46.17548  1      571
siesta:     35.91426  15.39183  41.04487  1      572
siesta:     38.47956  12.82652  48.74078  1      573
siesta:     33.34896  12.82652  43.61017  1      574
siesta:     33.34896  17.95713  48.74078  1      575
siesta:     38.47956  17.95713  43.61017  1      576
siesta:      0.00000  20.52243  41.04487  1      577
siesta:      0.00000  25.65304  46.17548  1      578
siesta:      5.13061  20.52243  46.17548  1      579
siesta:      5.13061  25.65304  41.04487  1      580
siesta:      7.69591  23.08774  48.74078  1      581
siesta:      2.56530  23.08774  43.61017  1      582
siesta:      2.56530  28.21835  48.74078  1      583
siesta:      7.69591  28.21835  43.61017  1      584
siesta:     10.26122  20.52243  41.04487  1      585
siesta:     10.26122  25.65304  46.17548  1      586
siesta:     15.39183  20.52243  46.17548  1      587
siesta:     15.39183  25.65304  41.04487  1      588
siesta:     17.95713  23.08774  48.74078  1      589
siesta:     12.82652  23.08774  43.61017  1      590
siesta:     12.82652  28.21835  48.74078  1      591
siesta:     17.95713  28.21835  43.61017  1      592
siesta:     20.52243  20.52243  41.04487  1      593
siesta:     20.52243  25.65304  46.17548  1      594
siesta:     25.65304  20.52243  46.17548  1      595
siesta:     25.65304  25.65304  41.04487  1      596
siesta:     28.21835  23.08774  48.74078  1      597
siesta:     23.08774  23.08774  43.61017  1      598
siesta:     23.08774  28.21835  48.74078  1      599
siesta:     28.21835  28.21835  43.61017  1      600
siesta:     30.78365  20.52243  41.04487  1      601
siesta:     30.78365  25.65304  46.17548  1      602
siesta:     35.91426  20.52243  46.17548  1      603
siesta:     35.91426  25.65304  41.04487  1      604
siesta:     38.47956  23.08774  48.74078  1      605
siesta:     33.34896  23.08774  43.61017  1      606
siesta:     33.34896  28.21835  48.74078  1      607
siesta:     38.47956  28.21835  43.61017  1      608
siesta:      0.00000  30.78365  41.04487  1      609
siesta:      0.00000  35.91426  46.17548  1      610
siesta:      5.13061  30.78365  46.17548  1      611
siesta:      5.13061  35.91426  41.04487  1      612
siesta:      7.69591  33.34896  48.74078  1      613
siesta:      2.56530  33.34896  43.61017  1      614
siesta:      2.56530  38.47956  48.74078  1      615
siesta:      7.69591  38.47956  43.61017  1      616
siesta:     10.26122  30.78365  41.04487  1      617
siesta:     10.26122  35.91426  46.17548  1      618
siesta:     15.39183  30.78365  46.17548  1      619
siesta:     15.39183  35.91426  41.04487  1      620
siesta:     17.95713  33.34896  48.74078  1      621
siesta:     12.82652  33.34896  43.61017  1      622
siesta:     12.82652  38.47956  48.74078  1      623
siesta:     17.95713  38.47956  43.61017  1      624
siesta:     20.52243  30.78365  41.04487  1      625
siesta:     20.52243  35.91426  46.17548  1      626
siesta:     25.65304  30.78365  46.17548  1      627
siesta:     25.65304  35.91426  41.04487  1      628
siesta:     28.21835  33.34896  48.74078  1      629
siesta:     23.08774  33.34896  43.61017  1      630
siesta:     23.08774  38.47956  48.74078  1      631
siesta:     28.21835  38.47956  43.61017  1      632
siesta:     30.78365  30.78365  41.04487  1      633
siesta:     30.78365  35.91426  46.17548  1      634
siesta:     35.91426  30.78365  46.17548  1      635
siesta:     35.91426  35.91426  41.04487  1      636
siesta:     38.47956  33.34896  48.74078  1      637
siesta:     33.34896  33.34896  43.61017  1      638
siesta:     33.34896  38.47956  48.74078  1      639
siesta:     38.47956  38.47956  43.61017  1      640
siesta:      0.00000   0.00000  51.30608  1      641
siesta:      0.00000   5.13061  56.43669  1      642
siesta:      5.13061   0.00000  56.43669  1      643
siesta:      5.13061   5.13061  51.30608  1      644
siesta:      7.69591   2.56530  59.00200  1      645
siesta:      2.56530   2.56530  53.87139  1      646
siesta:      2.56530   7.69591  59.00200  1      647
siesta:      7.69591   7.69591  53.87139  1      648
siesta:     10.26122   0.00000  51.30608  1      649
siesta:     10.26122   5.13061  56.43669  1      650
siesta:     15.39183   0.00000  56.43669  1      651
siesta:     15.39183   5.13061  51.30608  1      652
siesta:     17.95713   2.56530  59.00200  1      653
siesta:     12.82652   2.56530  53.87139  1      654
siesta:     12.82652   7.69591  59.00200  1      655
siesta:     17.95713   7.69591  53.87139  1      656
siesta:     20.52243   0.00000  51.30608  1      657
siesta:     20.52243   5.13061  56.43669  1      658
siesta:     25.65304   0.00000  56.43669  1      659
siesta:     25.65304   5.13061  51.30608  1      660
siesta:     28.21835   2.56530  59.00200  1      661
siesta:     23.08774   2.56530  53.87139  1      662
siesta:     23.08774   7.69591  59.00200  1      663
siesta:     28.21835   7.69591  53.87139  1      664
siesta:     30.78365   0.00000  51.30608  1      665
siesta:     30.78365   5.13061  56.43669  1      666
siesta:     35.91426   0.00000  56.43669  1      667
siesta:     35.91426   5.13061  51.30608  1      668
siesta:     38.47956   2.56530  59.00200  1      669
siesta:     33.34896   2.56530  53.87139  1      670
siesta:     33.34896   7.69591  59.00200  1      671
siesta:     38.47956   7.69591  53.87139  1      672
siesta:      0.00000  10.26122  51.30608  1      673
siesta:      0.00000  15.39183  56.43669  1      674
siesta:      5.13061  10.26122  56.43669  1      675
siesta:      5.13061  15.39183  51.30608  1      676
siesta:      7.69591  12.82652  59.00200  1      677
siesta:      2.56530  12.82652  53.87139  1      678
siesta:      2.56530  17.95713  59.00200  1      679
siesta:      7.69591  17.95713  53.87139  1      680
siesta:     10.26122  10.26122  51.30608  1      681
siesta:     10.26122  15.39183  56.43669  1      682
siesta:     15.39183  10.26122  56.43669  1      683
siesta:     15.39183  15.39183  51.30608  1      684
siesta:     17.95713  12.82652  59.00200  1      685
siesta:     12.82652  12.82652  53.87139  1      686
siesta:     12.82652  17.95713  59.00200  1      687
siesta:     17.95713  17.95713  53.87139  1      688
siesta:     20.52243  10.26122  51.30608  1      689
siesta:     20.52243  15.39183  56.43669  1      690
siesta:     25.65304  10.26122  56.43669  1      691
siesta:     25.65304  15.39183  51.30608  1      692
siesta:     28.21835  12.82652  59.00200  1      693
siesta:     23.08774  12.82652  53.87139  1      694
siesta:     23.08774  17.95713  59.00200  1      695
siesta:     28.21835  17.95713  53.87139  1      696
siesta:     30.78365  10.26122  51.30608  1      697
siesta:     30.78365  15.39183  56.43669  1      698
siesta:     35.91426  10.26122  56.43669  1      699
siesta:     35.91426  15.39183  51.30608  1      700
siesta:     38.47956  12.82652  59.00200  1      701
siesta:     33.34896  12.82652  53.87139  1      702
siesta:     33.34896  17.95713  59.00200  1      703
siesta:     38.47956  17.95713  53.87139  1      704
siesta:      0.00000  20.52243  51.30608  1      705
siesta:      0.00000  25.65304  56.43669  1      706
siesta:      5.13061  20.52243  56.43669  1      707
siesta:      5.13061  25.65304  51.30608  1      708
siesta:      7.69591  23.08774  59.00200  1      709
siesta:      2.56530  23.08774  53.87139  1      710
siesta:      2.56530  28.21835  59.00200  1      711
siesta:      7.69591  28.21835  53.87139  1      712
siesta:     10.26122  20.52243  51.30608  1      713
siesta:     10.26122  25.65304  56.43669  1      714
siesta:     15.39183  20.52243  56.43669  1      715
siesta:     15.39183  25.65304  51.30608  1      716
siesta:     17.95713  23.08774  59.00200  1      717
siesta:     12.82652  23.08774  53.87139  1      718
siesta:     12.82652  28.21835  59.00200  1      719
siesta:     17.95713  28.21835  53.87139  1      720
siesta:     20.52243  20.52243  51.30608  1      721
siesta:     20.52243  25.65304  56.43669  1      722
siesta:     25.65304  20.52243  56.43669  1      723
siesta:     25.65304  25.65304  51.30608  1      724
siesta:     28.21835  23.08774  59.00200  1      725
siesta:     23.08774  23.08774  53.87139  1      726
siesta:     23.08774  28.21835  59.00200  1      727
siesta:     28.21835  28.21835  53.87139  1      728
siesta:     30.78365  20.52243  51.30608  1      729
siesta:     30.78365  25.65304  56.43669  1      730
siesta:     35.91426  20.52243  56.43669  1      731
siesta:     35.91426  25.65304  51.30608  1      732
siesta:     38.47956  23.08774  59.00200  1      733
siesta:     33.34896  23.08774  53.87139  1      734
siesta:     33.34896  28.21835  59.00200  1      735
siesta:     38.47956  28.21835  53.87139  1      736
siesta:      0.00000  30.78365  51.30608  1      737
siesta:      0.00000  35.91426  56.43669  1      738
siesta:      5.13061  30.78365  56.43669  1      739
siesta:      5.13061  35.91426  51.30608  1      740
siesta:      7.69591  33.34896  59.00200  1      741
siesta:      2.56530  33.34896  53.87139  1      742
siesta:      2.56530  38.47956  59.00200  1      743
siesta:      7.69591  38.47956  53.87139  1      744
siesta:     10.26122  30.78365  51.30608  1      745
siesta:     10.26122  35.91426  56.43669  1      746
siesta:     15.39183  30.78365  56.43669  1      747
siesta:     15.39183  35.91426  51.30608  1      748
siesta:     17.95713  33.34896  59.00200  1      749
siesta:     12.82652  33.34896  53.87139  1      750
siesta:     12.82652  38.47956  59.00200  1      751
siesta:     17.95713  38.47956  53.87139  1      752
siesta:     20.52243  30.78365  51.30608  1      753
siesta:     20.52243  35.91426  56.43669  1      754
siesta:     25.65304  30.78365  56.43669  1      755
siesta:     25.65304  35.91426  51.30608  1      756
siesta:     28.21835  33.34896  59.00200  1      757
siesta:     23.08774  33.34896  53.87139  1      758
siesta:     23.08774  38.47956  59.00200  1      759
siesta:     28.21835  38.47956  53.87139  1      760
siesta:     30.78365  30.78365  51.30608  1      761
siesta:     30.78365  35.91426  56.43669  1      762
siesta:     35.91426  30.78365  56.43669  1      763
siesta:     35.91426  35.91426  51.30608  1      764
siesta:     38.47956  33.34896  59.00200  1      765
siesta:     33.34896  33.34896  53.87139  1      766
siesta:     33.34896  38.47956  59.00200  1      767
siesta:     38.47956  38.47956  53.87139  1      768
siesta:      0.00000   0.00000  61.56730  1      769
siesta:      0.00000   5.13061  66.69791  1      770
siesta:      5.13061   0.00000  66.69791  1      771
siesta:      5.13061   5.13061  61.56730  1      772
siesta:      7.69591   2.56530  69.26321  1      773
siesta:      2.56530   2.56530  64.13261  1      774
siesta:      2.56530   7.69591  69.26321  1      775
siesta:      7.69591   7.69591  64.13261  1      776
siesta:     10.26122   0.00000  61.56730  1      777
siesta:     10.26122   5.13061  66.69791  1      778
siesta:     15.39183   0.00000  66.69791  1      779
siesta:     15.39183   5.13061  61.56730  1      780
siesta:     17.95713   2.56530  69.26321  1      781
siesta:     12.82652   2.56530  64.13261  1      782
siesta:     12.82652   7.69591  69.26321  1      783
siesta:     17.95713   7.69591  64.13261  1      784
siesta:     20.52243   0.00000  61.56730  1      785
siesta:     20.52243   5.13061  66.69791  1      786
siesta:     25.65304   0.00000  66.69791  1      787
siesta:     25.65304   5.13061  61.56730  1      788
siesta:     28.21835   2.56530  69.26321  1      789
siesta:     23.08774   2.56530  64.13261  1      790
siesta:     23.08774   7.69591  69.26321  1      791
siesta:     28.21835   7.69591  64.13261  1      792
siesta:     30.78365   0.00000  61.56730  1      793
siesta:     30.78365   5.13061  66.69791  1      794
siesta:     35.91426   0.00000  66.69791  1      795
siesta:     35.91426   5.13061  61.56730  1      796
siesta:     38.47956   2.56530  69.26321  1      797
siesta:     33.34896   2.56530  64.13261  1      798
siesta:     33.34896   7.69591  69.26321  1      799
siesta:     38.47956   7.69591  64.13261  1      800
siesta:      0.00000  10.26122  61.56730  1      801
siesta:      0.00000  15.39183  66.69791  1      802
siesta:      5.13061  10.26122  66.69791  1      803
siesta:      5.13061  15.39183  61.56730  1      804
siesta:      7.69591  12.82652  69.26321  1      805
siesta:      2.56530  12.82652  64.13261  1      806
siesta:      2.56530  17.95713  69.26321  1      807
siesta:      7.69591  17.95713  64.13261  1      808
siesta:     10.26122  10.26122  61.56730  1      809
siesta:     10.26122  15.39183  66.69791  1      810
siesta:     15.39183  10.26122  66.69791  1      811
siesta:     15.39183  15.39183  61.56730  1      812
siesta:     17.95713  12.82652  69.26321  1      813
siesta:     12.82652  12.82652  64.13261  1      814
siesta:     12.82652  17.95713  69.26321  1      815
siesta:     17.95713  17.95713  64.13261  1      816
siesta:     20.52243  10.26122  61.56730  1      817
siesta:     20.52243  15.39183  66.69791  1      818
siesta:     25.65304  10.26122  66.69791  1      819
siesta:     25.65304  15.39183  61.56730  1      820
siesta:     28.21835  12.82652  69.26321  1      821
siesta:     23.08774  12.82652  64.13261  1      822
siesta:     23.08774  17.95713  69.26321  1      823
siesta:     28.21835  17.95713  64.13261  1      824
siesta:     30.78365  10.26122  61.56730  1      825
siesta:     30.78365  15.39183  66.69791  1      826
siesta:     35.91426  10.26122  66.69791  1      827
siesta:     35.91426  15.39183  61.56730  1      828
siesta:     38.47956  12.82652  69.26321  1      829
siesta:     33.34896  12.82652  64.13261  1      830
siesta:     33.34896  17.95713  69.26321  1      831
siesta:     38.47956  17.95713  64.13261  1      832
siesta:      0.00000  20.52243  61.56730  1      833
siesta:      0.00000  25.65304  66.69791  1      834
siesta:      5.13061  20.52243  66.69791  1      835
siesta:      5.13061  25.65304  61.56730  1      836
siesta:      7.69591  23.08774  69.26321  1      837
siesta:      2.56530  23.08774  64.13261  1      838
siesta:      2.56530  28.21835  69.26321  1      839
siesta:      7.69591  28.21835  64.13261  1      840
siesta:     10.26122  20.52243  61.56730  1      841
siesta:     10.26122  25.65304  66.69791  1      842
siesta:     15.39183  20.52243  66.69791  1      843
siesta:     15.39183  25.65304  61.56730  1      844
siesta:     17.95713  23.08774  69.26321  1      845
siesta:     12.82652  23.08774  64.13261  1      846
siesta:     12.82652  28.21835  69.26321  1      847
siesta:     17.95713  28.21835  64.13261  1      848
siesta:     20.52243  20.52243  61.56730  1      849
siesta:     20.52243  25.65304  66.69791  1      850
siesta:     25.65304  20.52243  66.69791  1      851
siesta:     25.65304  25.65304  61.56730  1      852
siesta:     28.21835  23.08774  69.26321  1      853
siesta:     23.08774  23.08774  64.13261  1      854
siesta:     23.08774  28.21835  69.26321  1      855
siesta:     28.21835  28.21835  64.13261  1      856
siesta:     30.78365  20.52243  61.56730  1      857
siesta:     30.78365  25.65304  66.69791  1      858
siesta:     35.91426  20.52243  66.69791  1      859
siesta:     35.91426  25.65304  61.56730  1      860
siesta:     38.47956  23.08774  69.26321  1      861
siesta:     33.34896  23.08774  64.13261  1      862
siesta:     33.34896  28.21835  69.26321  1      863
siesta:     38.47956  28.21835  64.13261  1      864
siesta:      0.00000  30.78365  61.56730  1      865
siesta:      0.00000  35.91426  66.69791  1      866
siesta:      5.13061  30.78365  66.69791  1      867
siesta:      5.13061  35.91426  61.56730  1      868
siesta:      7.69591  33.34896  69.26321  1      869
siesta:      2.56530  33.34896  64.13261  1      870
siesta:      2.56530  38.47956  69.26321  1      871
siesta:      7.69591  38.47956  64.13261  1      872
siesta:     10.26122  30.78365  61.56730  1      873
siesta:     10.26122  35.91426  66.69791  1      874
siesta:     15.39183  30.78365  66.69791  1      875
siesta:     15.39183  35.91426  61.56730  1      876
siesta:     17.95713  33.34896  69.26321  1      877
siesta:     12.82652  33.34896  64.13261  1      878
siesta:     12.82652  38.47956  69.26321  1      879
siesta:     17.95713  38.47956  64.13261  1      880
siesta:     20.52243  30.78365  61.56730  1      881
siesta:     20.52243  35.91426  66.69791  1      882
siesta:     25.65304  30.78365  66.69791  1      883
siesta:     25.65304  35.91426  61.56730  1      884
siesta:     28.21835  33.34896  69.26321  1      885
siesta:     23.08774  33.34896  64.13261  1      886
siesta:     23.08774  38.47956  69.26321  1      887
siesta:     28.21835  38.47956  64.13261  1      888
siesta:     30.78365  30.78365  61.56730  1      889
siesta:     30.78365  35.91426  66.69791  1      890
siesta:     35.91426  30.78365  66.69791  1      891
siesta:     35.91426  35.91426  61.56730  1      892
siesta:     38.47956  33.34896  69.26321  1      893
siesta:     33.34896  33.34896  64.13261  1      894
siesta:     33.34896  38.47956  69.26321  1      895
siesta:     38.47956  38.47956  64.13261  1      896
siesta:      0.00000   0.00000  71.82852  1      897
siesta:      0.00000   5.13061  76.95913  1      898
siesta:      5.13061   0.00000  76.95913  1      899
siesta:      5.13061   5.13061  71.82852  1      900
siesta:      7.69591   2.56530  79.52443  1      901
siesta:      2.56530   2.56530  74.39382  1      902
siesta:      2.56530   7.69591  79.52443  1      903
siesta:      7.69591   7.69591  74.39382  1      904
siesta:     10.26122   0.00000  71.82852  1      905
siesta:     10.26122   5.13061  76.95913  1      906
siesta:     15.39183   0.00000  76.95913  1      907
siesta:     15.39183   5.13061  71.82852  1      908
siesta:     17.95713   2.56530  79.52443  1      909
siesta:     12.82652   2.56530  74.39382  1      910
siesta:     12.82652   7.69591  79.52443  1      911
siesta:     17.95713   7.69591  74.39382  1      912
siesta:     20.52243   0.00000  71.82852  1      913
siesta:     20.52243   5.13061  76.95913  1      914
siesta:     25.65304   0.00000  76.95913  1      915
siesta:     25.65304   5.13061  71.82852  1      916
siesta:     28.21835   2.56530  79.52443  1      917
siesta:     23.08774   2.56530  74.39382  1      918
siesta:     23.08774   7.69591  79.52443  1      919
siesta:     28.21835   7.69591  74.39382  1      920
siesta:     30.78365   0.00000  71.82852  1      921
siesta:     30.78365   5.13061  76.95913  1      922
siesta:     35.91426   0.00000  76.95913  1      923
siesta:     35.91426   5.13061  71.82852  1      924
siesta:     38.47956   2.56530  79.52443  1      925
siesta:     33.34896   2.56530  74.39382  1      926
siesta:     33.34896   7.69591  79.52443  1      927
siesta:     38.47956   7.69591  74.39382  1      928
siesta:      0.00000  10.26122  71.82852  1      929
siesta:      0.00000  15.39183  76.95913  1      930
siesta:      5.13061  10.26122  76.95913  1      931
siesta:      5.13061  15.39183  71.82852  1      932
siesta:      7.69591  12.82652  79.52443  1      933
siesta:      2.56530  12.82652  74.39382  1      934
siesta:      2.56530  17.95713  79.52443  1      935
siesta:      7.69591  17.95713  74.39382  1      936
siesta:     10.26122  10.26122  71.82852  1      937
siesta:     10.26122  15.39183  76.95913  1      938
siesta:     15.39183  10.26122  76.95913  1      939
siesta:     15.39183  15.39183  71.82852  1      940
siesta:     17.95713  12.82652  79.52443  1      941
siesta:     12.82652  12.82652  74.39382  1      942
siesta:     12.82652  17.95713  79.52443  1      943
siesta:     17.95713  17.95713  74.39382  1      944
siesta:     20.52243  10.26122  71.82852  1      945
siesta:     20.52243  15.39183  76.95913  1      946
siesta:     25.65304  10.26122  76.95913  1      947
siesta:     25.65304  15.39183  71.82852  1      948
siesta:     28.21835  12.82652  79.52443  1      949
siesta:     23.08774  12.82652  74.39382  1      950
siesta:     23.08774  17.95713  79.52443  1      951
siesta:     28.21835  17.95713  74.39382  1      952
siesta:     30.78365  10.26122  71.82852  1      953
siesta:     30.78365  15.39183  76.95913  1      954
siesta:     35.91426  10.26122  76.95913  1      955
siesta:     35.91426  15.39183  71.82852  1      956
siesta:     38.47956  12.82652  79.52443  1      957
siesta:     33.34896  12.82652  74.39382  1      958
siesta:     33.34896  17.95713  79.52443  1      959
siesta:     38.47956  17.95713  74.39382  1      960
siesta:      0.00000  20.52243  71.82852  1      961
siesta:      0.00000  25.65304  76.95913  1      962
siesta:      5.13061  20.52243  76.95913  1      963
siesta:      5.13061  25.65304  71.82852  1      964
siesta:      7.69591  23.08774  79.52443  1      965
siesta:      2.56530  23.08774  74.39382  1      966
siesta:      2.56530  28.21835  79.52443  1      967
siesta:      7.69591  28.21835  74.39382  1      968
siesta:     10.26122  20.52243  71.82852  1      969
siesta:     10.26122  25.65304  76.95913  1      970
siesta:     15.39183  20.52243  76.95913  1      971
siesta:     15.39183  25.65304  71.82852  1      972
siesta:     17.95713  23.08774  79.52443  1      973
siesta:     12.82652  23.08774  74.39382  1      974
siesta:     12.82652  28.21835  79.52443  1      975
siesta:     17.95713  28.21835  74.39382  1      976
siesta:     20.52243  20.52243  71.82852  1      977
siesta:     20.52243  25.65304  76.95913  1      978
siesta:     25.65304  20.52243  76.95913  1      979
siesta:     25.65304  25.65304  71.82852  1      980
siesta:     28.21835  23.08774  79.52443  1      981
siesta:     23.08774  23.08774  74.39382  1      982
siesta:     23.08774  28.21835  79.52443  1      983
siesta:     28.21835  28.21835  74.39382  1      984
siesta:     30.78365  20.52243  71.82852  1      985
siesta:     30.78365  25.65304  76.95913  1      986
siesta:     35.91426  20.52243  76.95913  1      987
siesta:     35.91426  25.65304  71.82852  1      988
siesta:     38.47956  23.08774  79.52443  1      989
siesta:     33.34896  23.08774  74.39382  1      990
siesta:     33.34896  28.21835  79.52443  1      991
siesta:     38.47956  28.21835  74.39382  1      992
siesta:      0.00000  30.78365  71.82852  1      993
siesta:      0.00000  35.91426  76.95913  1      994
siesta:      5.13061  30.78365  76.95913  1      995
siesta:      5.13061  35.91426  71.82852  1      996
siesta:      7.69591  33.34896  79.52443  1      997
siesta:      2.56530  33.34896  74.39382  1      998
siesta:      2.56530  38.47956  79.52443  1      999
siesta:      7.69591  38.47956  74.39382  1     1000
siesta:     10.26122  30.78365  71.82852  1     1001
siesta:     10.26122  35.91426  76.95913  1     1002
siesta:     15.39183  30.78365  76.95913  1     1003
siesta:     15.39183  35.91426  71.82852  1     1004
siesta:     17.95713  33.34896  79.52443  1     1005
siesta:     12.82652  33.34896  74.39382  1     1006
siesta:     12.82652  38.47956  79.52443  1     1007
siesta:     17.95713  38.47956  74.39382  1     1008
siesta:     20.52243  30.78365  71.82852  1     1009
siesta:     20.52243  35.91426  76.95913  1     1010
siesta:     25.65304  30.78365  76.95913  1     1011
siesta:     25.65304  35.91426  71.82852  1     1012
siesta:     28.21835  33.34896  79.52443  1     1013
siesta:     23.08774  33.34896  74.39382  1     1014
siesta:     23.08774  38.47956  79.52443  1     1015
siesta:     28.21835  38.47956  74.39382  1     1016
siesta:     30.78365  30.78365  71.82852  1     1017
siesta:     30.78365  35.91426  76.95913  1     1018
siesta:     35.91426  30.78365  76.95913  1     1019
siesta:     35.91426  35.91426  71.82852  1     1020
siesta:     38.47956  33.34896  79.52443  1     1021
siesta:     33.34896  33.34896  74.39382  1     1022
siesta:     33.34896  38.47956  79.52443  1     1023
siesta:     38.47956  38.47956  74.39382  1     1024

siesta: System type = bulk      

initatomlists: Number of atoms, orbitals, and projectors:   1024 13312 16384

siesta: ******************** Simulation parameters ****************************
siesta:
siesta: The following are some of the parameters of the simulation.
siesta: A complete list of the parameters used, including default values,
siesta: can be found in file out.fdf
siesta:
redata: Non-Collinear-spin run           =     F
redata: SpinPolarized (Up/Down) run      =     F
redata: Number of spin components        =     1
redata: Long output                      =     F
redata: Number of Atomic Species         =        1
redata: Charge density info will appear in .RHO file
redata: Write Mulliken Pop.              =     NO
redata: Mesh Cutoff                      =   150.0000  Ry
redata: Net charge of the system         =     0.0000 |e|
redata: Max. number of SCF Iter          =       50
redata: Performing Pulay mixing using    =     3 iterations
redata: Mix DM in first SCF step ?       =     F
redata: Write Pulay info on disk?        =     F
redata: Discard 1st Pulay DM after  kick =     F
redata: New DM Mixing Weight             =     0.3000
redata: New DM Occupancy tolerance       = 0.000000000001
redata: No kicks to SCF
redata: DM Mixing Weight for Kicks       =     0.5000
redata: DM Tolerance for SCF             =     0.000100
redata: Require Energy convergence for SCF =     F
redata: DM Energy tolerance for SCF      =     0.000100 eV
redata: Require Harris convergence for SCF =     F
redata: DM Harris energy tolerance for SCF =     0.000100 eV
redata: Using Saved Data (generic)   =     F
redata: Use continuation files for DM    =     F
redata: Neglect nonoverlap interactions  =     F
redata: Method of Calculation            =     Diagonalization
redata: Divide and Conquer               =     T
redata: Electronic Temperature           =     0.0018  Ry
redata: Fix the spin of the system       =     F
redata: Dynamics option                  =     CG coord. optimization
redata: Variable cell                    =     F
redata: Use continuation files for CG    =     F
redata: Max atomic displ per move        =     0.2000  Bohr
redata: Maximum number of CG moves       =        0
redata: Force tolerance                  =     0.0004  Ry/Bohr
redata: ***********************************************************************
Total number of electrons:  4096.000000
Total ionic charge:  4096.000000

* ProcessorY, Blocksize:   12  24

 Kpoints in:            1 . Kpoints trimmed:            1

siesta: k-grid: Number of k-points =     1
siesta: k-grid: Cutoff (effective) =    10.860 Ang
siesta: k-grid: Supercell and displacements
siesta: k-grid:    1   0   0      0.000
siesta: k-grid:    0   1   0      0.000
siesta: k-grid:    0   0   1      0.000

* Maximum dynamic memory allocated =    15 MB

siesta:                 ==============================
                            Begin CG move =      0
                        ==============================

outcoor: Atomic coordinates (fractional):                   
    0.00000000    0.00000000    0.00000000   1       1  Si
    0.00000000    0.12500000    0.06250000   1       2  Si
    0.12500000    0.00000000    0.06250000   1       3  Si
    0.12500000    0.12500000    0.00000000   1       4  Si
    0.18750000    0.06250000    0.09375000   1       5  Si
    0.06250000    0.06250000    0.03125000   1       6  Si
    0.06250000    0.18750000    0.09375000   1       7  Si
    0.18750000    0.18750000    0.03125000   1       8  Si
    0.25000000    0.00000000    0.00000000   1       9  Si
    0.25000000    0.12500000    0.06250000   1      10  Si
    0.37500000    0.00000000    0.06250000   1      11  Si
    0.37500000    0.12500000    0.00000000   1      12  Si
    0.43750000    0.06250000    0.09375000   1      13  Si
    0.31250000    0.06250000    0.03125000   1      14  Si
    0.31250000    0.18750000    0.09375000   1      15  Si
    0.43750000    0.18750000    0.03125000   1      16  Si
    0.50000000    0.00000000    0.00000000   1      17  Si
    0.50000000    0.12500000    0.06250000   1      18  Si
    0.62500000    0.00000000    0.06250000   1      19  Si
    0.62500000    0.12500000    0.00000000   1      20  Si
    0.68750000    0.06250000    0.09375000   1      21  Si
    0.56250000    0.06250000    0.03125000   1      22  Si
    0.56250000    0.18750000    0.09375000   1      23  Si
    0.68750000    0.18750000    0.03125000   1      24  Si
    0.75000000    0.00000000    0.00000000   1      25  Si
    0.75000000    0.12500000    0.06250000   1      26  Si
    0.87500000    0.00000000    0.06250000   1      27  Si
    0.87500000    0.12500000    0.00000000   1      28  Si
    0.93750000    0.06250000    0.09375000   1      29  Si
    0.81250000    0.06250000    0.03125000   1      30  Si
    0.81250000    0.18750000    0.09375000   1      31  Si
    0.93750000    0.18750000    0.03125000   1      32  Si
    0.00000000    0.25000000    0.00000000   1      33  Si
    0.00000000    0.37500000    0.06250000   1      34  Si
    0.12500000    0.25000000    0.06250000   1      35  Si
    0.12500000    0.37500000    0.00000000   1      36  Si
    0.18750000    0.31250000    0.09375000   1      37  Si
    0.06250000    0.31250000    0.03125000   1      38  Si
    0.06250000    0.43750000    0.09375000   1      39  Si
    0.18750000    0.43750000    0.03125000   1      40  Si
    0.25000000    0.25000000    0.00000000   1      41  Si
    0.25000000    0.37500000    0.06250000   1      42  Si
    0.37500000    0.25000000    0.06250000   1      43  Si
    0.37500000    0.37500000    0.00000000   1      44  Si
    0.43750000    0.31250000    0.09375000   1      45  Si
    0.31250000    0.31250000    0.03125000   1      46  Si
    0.31250000    0.43750000    0.09375000   1      47  Si
    0.43750000    0.43750000    0.03125000   1      48  Si
    0.50000000    0.25000000    0.00000000   1      49  Si
    0.50000000    0.37500000    0.06250000   1      50  Si
    0.62500000    0.25000000    0.06250000   1      51  Si
    0.62500000    0.37500000    0.00000000   1      52  Si
    0.68750000    0.31250000    0.09375000   1      53  Si
    0.56250000    0.31250000    0.03125000   1      54  Si
    0.56250000    0.43750000    0.09375000   1      55  Si
    0.68750000    0.43750000    0.03125000   1      56  Si
    0.75000000    0.25000000    0.00000000   1      57  Si
    0.75000000    0.37500000    0.06250000   1      58  Si
    0.87500000    0.25000000    0.06250000   1      59  Si
    0.87500000    0.37500000    0.00000000   1      60  Si
    0.93750000    0.31250000    0.09375000   1      61  Si
    0.81250000    0.31250000    0.03125000   1      62  Si
    0.81250000    0.43750000    0.09375000   1      63  Si
    0.93750000    0.43750000    0.03125000   1      64  Si
    0.00000000    0.50000000    0.00000000   1      65  Si
    0.00000000    0.62500000    0.06250000   1      66  Si
    0.12500000    0.50000000    0.06250000   1      67  Si
    0.12500000    0.62500000    0.00000000   1      68  Si
    0.18750000    0.56250000    0.09375000   1      69  Si
    0.06250000    0.56250000    0.03125000   1      70  Si
    0.06250000    0.68750000    0.09375000   1      71  Si
    0.18750000    0.68750000    0.03125000   1      72  Si
    0.25000000    0.50000000    0.00000000   1      73  Si
    0.25000000    0.62500000    0.06250000   1      74  Si
    0.37500000    0.50000000    0.06250000   1      75  Si
    0.37500000    0.62500000    0.00000000   1      76  Si
    0.43750000    0.56250000    0.09375000   1      77  Si
    0.31250000    0.56250000    0.03125000   1      78  Si
    0.31250000    0.68750000    0.09375000   1      79  Si
    0.43750000    0.68750000    0.03125000   1      80  Si
    0.50000000    0.50000000    0.00000000   1      81  Si
    0.50000000    0.62500000    0.06250000   1      82  Si
    0.62500000    0.50000000    0.06250000   1      83  Si
    0.62500000    0.62500000    0.00000000   1      84  Si
    0.68750000    0.56250000    0.09375000   1      85  Si
    0.56250000    0.56250000    0.03125000   1      86  Si
    0.56250000    0.68750000    0.09375000   1      87  Si
    0.68750000    0.68750000    0.03125000   1      88  Si
    0.75000000    0.50000000    0.00000000   1      89  Si
    0.75000000    0.62500000    0.06250000   1      90  Si
    0.87500000    0.50000000    0.06250000   1      91  Si
    0.87500000    0.62500000    0.00000000   1      92  Si
    0.93750000    0.56250000    0.09375000   1      93  Si
    0.81250000    0.56250000    0.03125000   1      94  Si
    0.81250000    0.68750000    0.09375000   1      95  Si
    0.93750000    0.68750000    0.03125000   1      96  Si
    0.00000000    0.75000000    0.00000000   1      97  Si
    0.00000000    0.87500000    0.06250000   1      98  Si
    0.12500000    0.75000000    0.06250000   1      99  Si
    0.12500000    0.87500000    0.00000000   1     100  Si
    0.18750000    0.81250000    0.09375000   1     101  Si
    0.06250000    0.81250000    0.03125000   1     102  Si
    0.06250000    0.93750000    0.09375000   1     103  Si
    0.18750000    0.93750000    0.03125000   1     104  Si
    0.25000000    0.75000000    0.00000000   1     105  Si
    0.25000000    0.87500000    0.06250000   1     106  Si
    0.37500000    0.75000000    0.06250000   1     107  Si
    0.37500000    0.87500000    0.00000000   1     108  Si
    0.43750000    0.81250000    0.09375000   1     109  Si
    0.31250000    0.81250000    0.03125000   1     110  Si
    0.31250000    0.93750000    0.09375000   1     111  Si
    0.43750000    0.93750000    0.03125000   1     112  Si
    0.50000000    0.75000000    0.00000000   1     113  Si
    0.50000000    0.87500000    0.06250000   1     114  Si
    0.62500000    0.75000000    0.06250000   1     115  Si
    0.62500000    0.87500000    0.00000000   1     116  Si
    0.68750000    0.81250000    0.09375000   1     117  Si
    0.56250000    0.81250000    0.03125000   1     118  Si
    0.56250000    0.93750000    0.09375000   1     119  Si
    0.68750000    0.93750000    0.03125000   1     120  Si
    0.75000000    0.75000000    0.00000000   1     121  Si
    0.75000000    0.87500000    0.06250000   1     122  Si
    0.87500000    0.75000000    0.06250000   1     123  Si
    0.87500000    0.87500000    0.00000000   1     124  Si
    0.93750000    0.81250000    0.09375000   1     125  Si
    0.81250000    0.81250000    0.03125000   1     126  Si
    0.81250000    0.93750000    0.09375000   1     127  Si
    0.93750000    0.93750000    0.03125000   1     128  Si
    0.00000000    0.00000000    0.12500000   1     129  Si
    0.00000000    0.12500000    0.18750000   1     130  Si
    0.12500000    0.00000000    0.18750000   1     131  Si
    0.12500000    0.12500000    0.12500000   1     132  Si
    0.18750000    0.06250000    0.21875000   1     133  Si
    0.06250000    0.06250000    0.15625000   1     134  Si
    0.06250000    0.18750000    0.21875000   1     135  Si
    0.18750000    0.18750000    0.15625000   1     136  Si
    0.25000000    0.00000000    0.12500000   1     137  Si
    0.25000000    0.12500000    0.18750000   1     138  Si
    0.37500000    0.00000000    0.18750000   1     139  Si
    0.37500000    0.12500000    0.12500000   1     140  Si
    0.43750000    0.06250000    0.21875000   1     141  Si
    0.31250000    0.06250000    0.15625000   1     142  Si
    0.31250000    0.18750000    0.21875000   1     143  Si
    0.43750000    0.18750000    0.15625000   1     144  Si
    0.50000000    0.00000000    0.12500000   1     145  Si
    0.50000000    0.12500000    0.18750000   1     146  Si
    0.62500000    0.00000000    0.18750000   1     147  Si
    0.62500000    0.12500000    0.12500000   1     148  Si
    0.68750000    0.06250000    0.21875000   1     149  Si
    0.56250000    0.06250000    0.15625000   1     150  Si
    0.56250000    0.18750000    0.21875000   1     151  Si
    0.68750000    0.18750000    0.15625000   1     152  Si
    0.75000000    0.00000000    0.12500000   1     153  Si
    0.75000000    0.12500000    0.18750000   1     154  Si
    0.87500000    0.00000000    0.18750000   1     155  Si
    0.87500000    0.12500000    0.12500000   1     156  Si
    0.93750000    0.06250000    0.21875000   1     157  Si
    0.81250000    0.06250000    0.15625000   1     158  Si
    0.81250000    0.18750000    0.21875000   1     159  Si
    0.93750000    0.18750000    0.15625000   1     160  Si
    0.00000000    0.25000000    0.12500000   1     161  Si
    0.00000000    0.37500000    0.18750000   1     162  Si
[...]
siesta: FreeEng =   -109447.148012

siesta: Final energy (eV):
siesta:  Band Struct. =  -41301.554398
siesta:       Kinetic =   41958.485704
siesta:       Hartree =    7703.000407
siesta:    Ext. field =       0.000000
siesta:   Exch.-corr. =  -33612.880984
siesta:  Ion-electron =  -51457.731798
siesta:       Ion-ion =  -74038.021342
siesta:       Ekinion =       0.000000
siesta:         Total = -109447.148012

siesta: Stress tensor (static) (eV/Ang**3):
siesta:    -0.250684   -0.000000    0.000000
siesta:    -0.000000   -0.250684    0.000000
siesta:     0.000000    0.000000   -0.250518

siesta: Cell volume =      20493.184896 Ang**3

siesta: Pressure (static):
siesta:                Solid            Molecule  Units
siesta:           0.00272966          0.00272954  Ry/Bohr**3
siesta:           0.25062847          0.25061703  eV/Ang**3
siesta:         401.55541312        401.53708923  kBar
(Free)E+ p_basis*V_orbitals  =     -107479.846847
(Free)Eharris+ p_basis*V_orbitals  =     -107479.822414

* Maximum dynamic memory allocated : Node    0 =  2056 MB
* Maximum dynamic memory allocated : Node    1 =  2056 MB
* Maximum dynamic memory allocated : Node    2 =  2050 MB
* Maximum dynamic memory allocated : Node    3 =  2051 MB
* Maximum dynamic memory allocated : Node    4 =  2050 MB
* Maximum dynamic memory allocated : Node    5 =  2050 MB
* Maximum dynamic memory allocated : Node    6 =  2050 MB
* Maximum dynamic memory allocated : Node    7 =  2051 MB
* Maximum dynamic memory allocated : Node    8 =  2051 MB
* Maximum dynamic memory allocated : Node    9 =  2050 MB
* Maximum dynamic memory allocated : Node   10 =  2050 MB
* Maximum dynamic memory allocated : Node   11 =  2050 MB
* Maximum dynamic memory allocated : Node   12 =  2050 MB
* Maximum dynamic memory allocated : Node   13 =  2051 MB
* Maximum dynamic memory allocated : Node   14 =  2050 MB
* Maximum dynamic memory allocated : Node   15 =  2050 MB
* Maximum dynamic memory allocated : Node   16 =  2050 MB
* Maximum dynamic memory allocated : Node   17 =  2050 MB
* Maximum dynamic memory allocated : Node   18 =  2049 MB
* Maximum dynamic memory allocated : Node   19 =  2050 MB
* Maximum dynamic memory allocated : Node   20 =  2056 MB
* Maximum dynamic memory allocated : Node   21 =  2057 MB
* Maximum dynamic memory allocated : Node   22 =  2050 MB
* Maximum dynamic memory allocated : Node   23 =  2050 MB
* Maximum dynamic memory allocated : Node   24 =  2050 MB
* Maximum dynamic memory allocated : Node   25 =  2050 MB
* Maximum dynamic memory allocated : Node   26 =  2051 MB
* Maximum dynamic memory allocated : Node   27 =  2050 MB
* Maximum dynamic memory allocated : Node   28 =  2050 MB
* Maximum dynamic memory allocated : Node   29 =  2051 MB
* Maximum dynamic memory allocated : Node   30 =  2050 MB
* Maximum dynamic memory allocated : Node   31 =  2050 MB
* Maximum dynamic memory allocated : Node   32 =  2050 MB
* Maximum dynamic memory allocated : Node   33 =  2050 MB
* Maximum dynamic memory allocated : Node   34 =  2051 MB
* Maximum dynamic memory allocated : Node   35 =  2050 MB
* Maximum dynamic memory allocated : Node   36 =  2050 MB
* Maximum dynamic memory allocated : Node   37 =  2049 MB
* Maximum dynamic memory allocated : Node   38 =  2050 MB
* Maximum dynamic memory allocated : Node   39 =  2050 MB
* Maximum dynamic memory allocated : Node   40 =  2056 MB
* Maximum dynamic memory allocated : Node   41 =  2056 MB
* Maximum dynamic memory allocated : Node   42 =  2050 MB
* Maximum dynamic memory allocated : Node   43 =  2050 MB
* Maximum dynamic memory allocated : Node   44 =  2050 MB
* Maximum dynamic memory allocated : Node   45 =  2050 MB
* Maximum dynamic memory allocated : Node   46 =  2050 MB
* Maximum dynamic memory allocated : Node   47 =  2050 MB
* Maximum dynamic memory allocated : Node   48 =  2050 MB
* Maximum dynamic memory allocated : Node   49 =  2050 MB
* Maximum dynamic memory allocated : Node   50 =  2050 MB
* Maximum dynamic memory allocated : Node   51 =  2050 MB
* Maximum dynamic memory allocated : Node   52 =  2050 MB
* Maximum dynamic memory allocated : Node   53 =  2050 MB
* Maximum dynamic memory allocated : Node   54 =  2050 MB
* Maximum dynamic memory allocated : Node   55 =  2050 MB
* Maximum dynamic memory allocated : Node   56 =  2049 MB
* Maximum dynamic memory allocated : Node   57 =  2049 MB
* Maximum dynamic memory allocated : Node   58 =  2050 MB
* Maximum dynamic memory allocated : Node   59 =  2050 MB
* Maximum dynamic memory allocated : Node   60 =  2056 MB
* Maximum dynamic memory allocated : Node   61 =  2056 MB
* Maximum dynamic memory allocated : Node   62 =  2050 MB
* Maximum dynamic memory allocated : Node   63 =  2050 MB
* Maximum dynamic memory allocated : Node   64 =  2050 MB
* Maximum dynamic memory allocated : Node   65 =  2050 MB
* Maximum dynamic memory allocated : Node   66 =  2050 MB
* Maximum dynamic memory allocated : Node   67 =  2050 MB
* Maximum dynamic memory allocated : Node   68 =  2050 MB
* Maximum dynamic memory allocated : Node   69 =  2050 MB
* Maximum dynamic memory allocated : Node   70 =  2049 MB
* Maximum dynamic memory allocated : Node   71 =  2050 MB
* Maximum dynamic memory allocated : Node   72 =  2050 MB
* Maximum dynamic memory allocated : Node   73 =  2051 MB
* Maximum dynamic memory allocated : Node   74 =  2045 MB
* Maximum dynamic memory allocated : Node   75 =  2034 MB
* Maximum dynamic memory allocated : Node   76 =  2034 MB
* Maximum dynamic memory allocated : Node   77 =  2035 MB
* Maximum dynamic memory allocated : Node   78 =  2035 MB
* Maximum dynamic memory allocated : Node   79 =  2034 MB
* Maximum dynamic memory allocated : Node   80 =  2041 MB
* Maximum dynamic memory allocated : Node   81 =  2041 MB
* Maximum dynamic memory allocated : Node   82 =  2035 MB
* Maximum dynamic memory allocated : Node   83 =  2035 MB
* Maximum dynamic memory allocated : Node   84 =  2035 MB
* Maximum dynamic memory allocated : Node   85 =  2035 MB
* Maximum dynamic memory allocated : Node   86 =  2035 MB
* Maximum dynamic memory allocated : Node   87 =  2035 MB
* Maximum dynamic memory allocated : Node   88 =  2035 MB
* Maximum dynamic memory allocated : Node   89 =  2035 MB
* Maximum dynamic memory allocated : Node   90 =  2035 MB
* Maximum dynamic memory allocated : Node   91 =  2035 MB
* Maximum dynamic memory allocated : Node   92 =  2035 MB
* Maximum dynamic memory allocated : Node   93 =  2035 MB
* Maximum dynamic memory allocated : Node   94 =  2035 MB
* Maximum dynamic memory allocated : Node   95 =  2034 MB
* Maximum dynamic memory allocated : Node   96 =  2034 MB
* Maximum dynamic memory allocated : Node   97 =  2034 MB
* Maximum dynamic memory allocated : Node   98 =  2034 MB
* Maximum dynamic memory allocated : Node   99 =  2034 MB
* Maximum dynamic memory allocated : Node  100 =  2041 MB
* Maximum dynamic memory allocated : Node  101 =  2041 MB
* Maximum dynamic memory allocated : Node  102 =  2034 MB
* Maximum dynamic memory allocated : Node  103 =  2035 MB
* Maximum dynamic memory allocated : Node  104 =  2035 MB
* Maximum dynamic memory allocated : Node  105 =  2035 MB
* Maximum dynamic memory allocated : Node  106 =  2035 MB
* Maximum dynamic memory allocated : Node  107 =  2035 MB
* Maximum dynamic memory allocated : Node  108 =  2034 MB
* Maximum dynamic memory allocated : Node  109 =  2035 MB
* Maximum dynamic memory allocated : Node  110 =  2035 MB
* Maximum dynamic memory allocated : Node  111 =  2035 MB
* Maximum dynamic memory allocated : Node  112 =  2035 MB
* Maximum dynamic memory allocated : Node  113 =  2035 MB
* Maximum dynamic memory allocated : Node  114 =  2035 MB
* Maximum dynamic memory allocated : Node  115 =  2034 MB
* Maximum dynamic memory allocated : Node  116 =  2034 MB
* Maximum dynamic memory allocated : Node  117 =  2034 MB
* Maximum dynamic memory allocated : Node  118 =  2034 MB
* Maximum dynamic memory allocated : Node  119 =  2034 MB
* Maximum dynamic memory allocated : Node  120 =  2041 MB
* Maximum dynamic memory allocated : Node  121 =  2040 MB
* Maximum dynamic memory allocated : Node  122 =  2035 MB
* Maximum dynamic memory allocated : Node  123 =  2035 MB
* Maximum dynamic memory allocated : Node  124 =  2035 MB
* Maximum dynamic memory allocated : Node  125 =  2035 MB
* Maximum dynamic memory allocated : Node  126 =  2035 MB
* Maximum dynamic memory allocated : Node  127 =  2035 MB
* Maximum dynamic memory allocated : Node  128 =  2035 MB
* Maximum dynamic memory allocated : Node  129 =  2035 MB
* Maximum dynamic memory allocated : Node  130 =  2035 MB
* Maximum dynamic memory allocated : Node  131 =  2035 MB
* Maximum dynamic memory allocated : Node  132 =  2035 MB
* Maximum dynamic memory allocated : Node  133 =  2036 MB
* Maximum dynamic memory allocated : Node  134 =  2034 MB
* Maximum dynamic memory allocated : Node  135 =  2034 MB
* Maximum dynamic memory allocated : Node  136 =  2035 MB
* Maximum dynamic memory allocated : Node  137 =  2035 MB
* Maximum dynamic memory allocated : Node  138 =  2035 MB
* Maximum dynamic memory allocated : Node  139 =  2034 MB
* Maximum dynamic memory allocated : Node  140 =  2041 MB
* Maximum dynamic memory allocated : Node  141 =  2041 MB
* Maximum dynamic memory allocated : Node  142 =  2035 MB
* Maximum dynamic memory allocated : Node  143 =  2035 MB
* Maximum dynamic memory allocated : Node  144 =  2035 MB
* Maximum dynamic memory allocated : Node  145 =  2035 MB
* Maximum dynamic memory allocated : Node  146 =  2035 MB
* Maximum dynamic memory allocated : Node  147 =  2035 MB
* Maximum dynamic memory allocated : Node  148 =  2035 MB
* Maximum dynamic memory allocated : Node  149 =  2035 MB
* Maximum dynamic memory allocated : Node  150 =  2035 MB
* Maximum dynamic memory allocated : Node  151 =  2035 MB
* Maximum dynamic memory allocated : Node  152 =  2035 MB
* Maximum dynamic memory allocated : Node  153 =  2035 MB
* Maximum dynamic memory allocated : Node  154 =  2035 MB
* Maximum dynamic memory allocated : Node  155 =  2035 MB
* Maximum dynamic memory allocated : Node  156 =  2034 MB
* Maximum dynamic memory allocated : Node  157 =  2034 MB
* Maximum dynamic memory allocated : Node  158 =  2034 MB
* Maximum dynamic memory allocated : Node  159 =  2035 MB
* Maximum dynamic memory allocated : Node  160 =  2041 MB
* Maximum dynamic memory allocated : Node  161 =  2041 MB
* Maximum dynamic memory allocated : Node  162 =  2035 MB
* Maximum dynamic memory allocated : Node  163 =  2035 MB
* Maximum dynamic memory allocated : Node  164 =  2035 MB
* Maximum dynamic memory allocated : Node  165 =  2035 MB
* Maximum dynamic memory allocated : Node  166 =  2035 MB
* Maximum dynamic memory allocated : Node  167 =  2034 MB
* Maximum dynamic memory allocated : Node  168 =  2035 MB
* Maximum dynamic memory allocated : Node  169 =  2035 MB
* Maximum dynamic memory allocated : Node  170 =  2035 MB
* Maximum dynamic memory allocated : Node  171 =  2035 MB
* Maximum dynamic memory allocated : Node  172 =  2035 MB
* Maximum dynamic memory allocated : Node  173 =  2035 MB
* Maximum dynamic memory allocated : Node  174 =  2035 MB
* Maximum dynamic memory allocated : Node  175 =  2035 MB
* Maximum dynamic memory allocated : Node  176 =  2034 MB
* Maximum dynamic memory allocated : Node  177 =  2034 MB
* Maximum dynamic memory allocated : Node  178 =  2034 MB
* Maximum dynamic memory allocated : Node  179 =  2034 MB
* Maximum dynamic memory allocated : Node  180 =  2033 MB
* Maximum dynamic memory allocated : Node  181 =  2033 MB
* Maximum dynamic memory allocated : Node  182 =  2029 MB
* Maximum dynamic memory allocated : Node  183 =  2029 MB
* Maximum dynamic memory allocated : Node  184 =  2029 MB
* Maximum dynamic memory allocated : Node  185 =  2029 MB
* Maximum dynamic memory allocated : Node  186 =  2028 MB
* Maximum dynamic memory allocated : Node  187 =  2029 MB
* Maximum dynamic memory allocated : Node  188 =  2029 MB
* Maximum dynamic memory allocated : Node  189 =  2028 MB
* Maximum dynamic memory allocated : Node  190 =  2029 MB
* Maximum dynamic memory allocated : Node  191 =  2029 MB
* Maximum dynamic memory allocated : Node  192 =  2029 MB
* Maximum dynamic memory allocated : Node  193 =  2028 MB
* Maximum dynamic memory allocated : Node  194 =  2028 MB
* Maximum dynamic memory allocated : Node  195 =  2028 MB
* Maximum dynamic memory allocated : Node  196 =  2028 MB
* Maximum dynamic memory allocated : Node  197 =  2028 MB
* Maximum dynamic memory allocated : Node  198 =  2028 MB
* Maximum dynamic memory allocated : Node  199 =  2028 MB
* Maximum dynamic memory allocated : Node  200 =  2033 MB
* Maximum dynamic memory allocated : Node  201 =  2034 MB
* Maximum dynamic memory allocated : Node  202 =  2029 MB
* Maximum dynamic memory allocated : Node  203 =  2028 MB
* Maximum dynamic memory allocated : Node  204 =  2029 MB
* Maximum dynamic memory allocated : Node  205 =  2029 MB
* Maximum dynamic memory allocated : Node  206 =  2028 MB
* Maximum dynamic memory allocated : Node  207 =  2028 MB
* Maximum dynamic memory allocated : Node  208 =  2029 MB
* Maximum dynamic memory allocated : Node  209 =  2029 MB
* Maximum dynamic memory allocated : Node  210 =  2029 MB
* Maximum dynamic memory allocated : Node  211 =  2029 MB
* Maximum dynamic memory allocated : Node  212 =  2028 MB
* Maximum dynamic memory allocated : Node  213 =  2028 MB
* Maximum dynamic memory allocated : Node  214 =  2029 MB
* Maximum dynamic memory allocated : Node  215 =  2028 MB
* Maximum dynamic memory allocated : Node  216 =  2028 MB
* Maximum dynamic memory allocated : Node  217 =  2028 MB
* Maximum dynamic memory allocated : Node  218 =  2028 MB
* Maximum dynamic memory allocated : Node  219 =  2028 MB
* Maximum dynamic memory allocated : Node  220 =  2033 MB
* Maximum dynamic memory allocated : Node  221 =  2033 MB
* Maximum dynamic memory allocated : Node  222 =  2028 MB
* Maximum dynamic memory allocated : Node  223 =  2028 MB
* Maximum dynamic memory allocated : Node  224 =  2029 MB
* Maximum dynamic memory allocated : Node  225 =  2028 MB
* Maximum dynamic memory allocated : Node  226 =  2028 MB
* Maximum dynamic memory allocated : Node  227 =  2028 MB
* Maximum dynamic memory allocated : Node  228 =  2028 MB
* Maximum dynamic memory allocated : Node  229 =  2028 MB
* Maximum dynamic memory allocated : Node  230 =  2028 MB
* Maximum dynamic memory allocated : Node  231 =  2028 MB
* Maximum dynamic memory allocated : Node  232 =  2028 MB
* Maximum dynamic memory allocated : Node  233 =  2028 MB
* Maximum dynamic memory allocated : Node  234 =  2028 MB
* Maximum dynamic memory allocated : Node  235 =  2028 MB
* Maximum dynamic memory allocated : Node  236 =  2028 MB
* Maximum dynamic memory allocated : Node  237 =  2027 MB
* Maximum dynamic memory allocated : Node  238 =  2028 MB
* Maximum dynamic memory allocated : Node  239 =  2027 MB

* Maximum memory occured during update_hfx                    

timer: CPU execution times:
timer:  Routine       Calls   Time/call    Tot.time        %
timer:  siesta            1 3341429.872 3341429.872   100.00
timer:  Setup             1     189.640     189.640     0.01
timer:  bands             1       0.089       0.089     0.00
timer:  writewave         1       0.167       0.167     0.00
timer:  KSV_init          1       0.046       0.046     0.00
timer:  IterMD            1 3341201.488 3341201.488    99.99
timer:  hsparse           1      58.185      58.185     0.00
timer:  overlap           1      35.609      35.609     0.00
timer:  IterSCF          13  228300.533 2967906.924    88.82
timer:  kinefsm           2      23.517      47.034     0.00
timer:  nlefsm            2     659.875    1319.750     0.04
timer:  DHSCF            14  235129.373 3291811.224    98.52
timer:  DHSCF1            1      35.086      35.086     0.00
timer:  DHSCF2            1     667.536     667.536     0.02
timer:  REORD            86       0.011       0.983     0.00
timer:  POISON           15       3.765      56.469     0.00
timer:  DHSCF3           14    3661.596   51262.341     1.53
timer:  rhoofd           14     758.439   10618.150     0.32
timer:  cellXC           14      22.487     314.814     0.01
timer:  vmat             14    2766.240   38727.363     1.16
timer:  DHFX             14  220118.041 3081652.575    92.23
timer:  HFX              14  194698.749 2725782.490    81.58
timer:  MolMec            2       0.160       0.320     0.00
timer:  diagon           13    3429.502   44583.522     1.33
timer:  r-eigvec         13    2901.559   37720.268     1.13
timer:  r-buildHS        13       1.533      19.933     0.00
timer:  rdiag            13    2900.023   37700.300     1.13
timer:  rdiag1           13     162.895    2117.637     0.06
timer:  rdiag2           13     799.457   10392.944     0.31
timer:  rdiag3           13    1710.719   22239.348     0.67
timer:  rdiag4           13     134.356    1746.629     0.05
timer:  r-buildD         13     527.202    6853.624     0.21
timer:  DHSCF4            1    1147.937    1147.937     0.03
timer:  dfscf             1    1127.170    1127.170     0.03
timer:  DFHFX             1  157044.563  157044.563     4.70
timer:  HFX_gradie        1       0.000       0.000     0.00
timer:  HFX_gradie        0    Infinity 3341441.633   100.00
timer:  overfsm           1      12.283      12.283     0.00
timer:  optical           1      34.681      34.681     0.00
  

elaps: ELAPSED times:
elaps:  Routine       Calls   Time/call    Tot.time        %
elaps:  siesta            1   13965.866   13965.866   100.00
elaps:  Setup             1       0.827       0.827     0.01
elaps:  bands             1       0.000       0.000     0.00
elaps:  writewave         1       0.001       0.001     0.00
elaps:  KSV_init          1       0.000       0.000     0.00
elaps:  IterMD            1   13964.872   13964.872    99.99
elaps:  hsparse           1       0.253       0.253     0.00
elaps:  overlap           1       0.163       0.163     0.00
elaps:  IterSCF          13     954.201   12404.611    88.82
elaps:  kinefsm           2       0.111       0.223     0.00
elaps:  nlefsm            2       3.281       6.563     0.05
elaps:  DHSCF            14     982.688   13757.636    98.51
elaps:  DHSCF1            1       0.147       0.147     0.00
elaps:  DHSCF2            1       2.836       2.836     0.02
elaps:  REORD            86       0.000       0.005     0.00
elaps:  POISON           15       0.019       0.282     0.00
elaps:  DHSCF3           14      15.304     214.257     1.53
elaps:  rhoofd           14       3.602      50.421     0.36
elaps:  cellXC           14       0.094       1.317     0.01
elaps:  vmat             14      11.563     161.878     1.16
elaps:  DHFX             14     919.925   12878.948    92.22
elaps:  HFX              14     813.108   11383.512    81.51
elaps:  MolMec            2       0.001       0.001     0.00
elaps:  diagon           13      14.404     187.250     1.34
elaps:  r-eigvec         13      12.197     158.562     1.14
elaps:  r-buildHS        13       0.010       0.125     0.00
elaps:  rdiag            13      12.187     158.436     1.13
elaps:  rdiag1           13       0.698       9.074     0.06
elaps:  rdiag2           13       3.340      43.415     0.31
elaps:  rdiag3           13       7.168      93.181     0.67
elaps:  rdiag4           13       0.564       7.328     0.05
elaps:  r-buildD         13       2.203      28.643     0.21
elaps:  DHSCF4            1       5.486       5.486     0.04
elaps:  dfscf             1       5.393       5.393     0.04
elaps:  DFHFX             1     655.956     655.956     4.70
elaps:  HFX_gradie        1       0.000       0.000     0.00
elaps:  HFX_gradie        0    Infinity   13965.570   100.00
elaps:  overfsm           1       0.063       0.063     0.00
elaps:  optical           1       0.000       0.000     0.00
  
>> End of run:  24-MAY-2023   9:35:03
