Siesta Version  : v4.1-b4-351
Architecture    : x86_64-linux-n-62-26-19
Compiler version: GNU Fortran (GCC) 9.3.0
Compiler flags  : mpifort -m64 -fPIC -O3 -march=native -ftree-vectorize -fexpensive-optimizatioons -funroll-loops -fprefetch-loop-arrays -fno-second-underscore  -flto
PP flags        : -I/dtu/sw/dcc/SL73/2020-aug/generic/build-tools/1.0/include -I/dtu/sw/dcc/SL773/2020-aug/generic/gcc/9.3.0/include -I/dtu/sw/dcc/SL73/2020-aug/generic/gcc/9.3.0/include -I/dtu/sw/dcc/SL73/2020-aug/XeonE5-2660v3/gnu/9.3.0/zlib/1.2.11/include -I/dtu/sw/dcc/SL73/2020-aug/generic/numactl/2.0.12/include -I/dtu/sw/dcc/SL73/2020-aug/XeonE5-2660v3/gnu/9.3.0/libxml2/2.9.10/include -I/dtu/sw/dcc/SL73/2020-aug/XeonE5-2660v3/gnu/9.3.0/hwloc/2.2.0/include -I/dtu/sw/dcc/SL73/2020-aug/XeonE5-2660v3/gnu/9.3.0/knem/1.1.4/include -I/dtu/sw/dcc/SL73/2020-aug/XeonE5-2660v3/gnu/9.3.0/ucx/1.8.1/include -I/dtu/sw/dcc/SL73/2020-aug/XeonE5-2660v3/gnu/9.3.0/openmpi/4.0.4/include -I/dtu/sw/dcc/SL73/2020-aug/XeonE5-2660v3/gnu/9.3.0/szip/2.1.1/include -I/dtu/sw/dcc/SL73/2020-aug/XeonE5-2660v3/gnu/9.3.0/hdf5/1.12.0/include -I/dtu/sw/dcc/SL73/2020-aug/XeonE5-2660v3/gnu/9.3.0/pnetcdf/1.12.1/include -I/dtu/sw/dcc/SL73/2020-aug/generic/gen-zlib/1.2.11/include -I/dtu/sw/dcc/SL73/2020-aug/generic/openssl/1.1.1/include -I/dtu/sw/dcc/SL73/2020-aug/generic/libssh2/1.8.2/include -I/dtu/sw/dcc/SL73/2020-aug/generic/curl/7.65.1/include -I/dtu/sw/dcc/SL73/2020-aug/XeonE5-2660v3/gnu/9.3.0/netcdf/4.7.4/include -I/dtu/sw/dcc/SL73/2020-aug/XeonE5-2660v3/gnu/9.3.0/flook/0.8.1/include -I/dtu/sw/dcc/SL73/2020-aug/XeonE5-2660v3/gnu/9.3.0/fftw/3.3.8/include -I/dtu/sw/dcc/SL73/2020-aug/XeonE5-2660v3/gnu/9.3.0/parmetis/4.0.3/include -I/dtu/sw/dcc/SL73/2020-aug/XeonE5-2660v3/gnu/9.3.0/scalapack/2.1.0/include -I/dtu/sw/dcc/SL73/2020-aug/XeonE5-2660v3/gnu/9.3.0/lapack/3.9.0/include -I/dtu/sw/dcc/SL73/2020-aug/XeonE5-2660v3/gnu/9.3.0/blis/0.7.0/include -I/dtu/sw/dcc/SL73/2020-aug/XeonE5-2660v3/gnu/9.3.0/scotch/6.0.9/include -I/dtu/sw/dcc/SL73/2020-aug/XeonE5-2660v3/gnu/9.3.0/mumps/5.3.3/include -I/dtu/sw/dcc/SL73/2020-aug/XeonE5-2660v3/gnu/9.3.0/elpa/2020.05.001/include -DSIESTA__ELPA -DMPI -DFC_HAVE_FLUSH -DFC_HAVE_ABORT -DCDF -DCDF4 -DSIESTA__FLOOK  -DNCDF -DNCDF_4 -DNCDF_PARALLEL -DTS_NOCHECKS -DSIESTA__METIS -DSIESTA__MUMPS -DSIESTA__MRRR -I/dtu/sw/dcc/SL73/2020-aug/XeonE5-2660v3/gnu/9.3.0/elpa/2020.05.001/include/elpa
Libraries       : libncdf.a libfdict.a -lnetcdff -lnetcdf -lpnetcdf -lhdf5_hl -lhdf5 -lz  -lzmuumps -lmumps_common -lesmumps -lscotch -lscotcherr -lpord -lparmetis -lmetis -lelpa -lscalapack -llapack -lblis  -L/dtu/sw/dcc/SL73/2020-aug/XeonE5-2660v3/gnu/9.3.0/flook/0.8.1/lib -Wl,-rpath=/dtu/sw/dcc/SL73/2020-aug/XeonE5-2660v3/gnu/9.3.0/flook/0.8.1/lib -lflookall -ldl  -flto -fuse-linker-plugin  -lmetis
PARALLEL version
NetCDF support
NetCDF-4 support
NetCDF-4 MPI-IO support
METIS ordering support
Lua support

* Running on 8 nodes in parallel
>> Start of run:  23-JAN-2021   1:33:30

                           ***********************       
                           *  WELCOME TO SIESTA  *       
                           ***********************       

reinit: Reading from term3.fdf

reinit: -----------------------------------------------------------------------
reinit: System Name: 
reinit: -----------------------------------------------------------------------
reinit: System Label: term3
reinit: -----------------------------------------------------------------------

initatom: Reading input for the pseudopotentials and atomic orbitals ----------
Species number:   1 Atomic number:    6 Label: C

Ground state valence configuration:   2s02  2p02
Reading pseudopotential information in formatted form from C.psf

Valence configuration for pseudopotential generation:
2s( 2.00) rc: 1.49
2p( 2.00) rc: 1.52
3d( 0.00) rc: 1.58
relmxkb: Read Max KB Ang. Momentum=    2 for species C

<basis_specs>
===============================================================================
C                    Z=   6    Mass=  12.010        Charge= 0.17977+309
Lmxo=1 Lmxkb= 2    BasisType=split      Semic=F
L=0  Nsemic=0  Cnfigmx=2
          i=1  nzeta=1  polorb=0  (2s)
            splnorm:   0.15000    
               vcte:    0.0000    
               rinn:    0.0000    
               qcoe:    0.0000    
               qyuk:    0.0000    
               qwid:   0.10000E-01
                rcs:    0.0000    
            lambdas:    1.0000    
L=1  Nsemic=0  Cnfigmx=2
          i=1  nzeta=1  polorb=1  (2p)
            splnorm:   0.15000    
               vcte:    0.0000    
               rinn:    0.0000    
               qcoe:    0.0000    
               qyuk:    0.0000    
               qwid:   0.10000E-01
                rcs:    0.0000    
            lambdas:    1.0000    
-------------------------------------------------------------------------------
L=0  Nkbl=1  erefs: 0.17977+309
L=1  Nkbl=1  erefs: 0.17977+309
L=2  Nkbl=1  erefs: 0.17977+309
===============================================================================
</basis_specs>

atom: Called for C                     (Z =   6)

read_vps: Pseudopotential generation method:
read_vps: ATM3      Troullier-Martins                       
Valence charge for ps generation:    4.00000

xc_check: Exchange-correlation functional:
xc_check: Ceperley-Alder
V l=0 = -2*Zval/r beyond r=  1.4666
V l=1 = -2*Zval/r beyond r=  1.5038
V l=2 = -2*Zval/r beyond r=  1.5612
All V_l potentials equal beyond r=  1.5612
This should be close to max(r_c) in ps generation
All pots = -2*Zval/r beyond r=  1.5612

VLOCAL1: 99.0% of the norm of Vloc inside     17.809 Ry
VLOCAL1: 99.9% of the norm of Vloc inside     40.586 Ry
atom: Maximum radius for 4*pi*r*r*local-pseudopot. charge    1.88329
atom: Maximum radius for r*vlocal+2*Zval:    1.62091
GHOST: No ghost state for L =  0
GHOST: No ghost state for L =  1
GHOST: No ghost state for L =  2

KBgen: Kleinman-Bylander projectors: 
   l= 0   rc=  1.747182   el= -1.001947   Ekb=  5.181700   kbcos=  0.300603
   l= 1   rc=  1.747182   el= -0.398598   Ekb= -4.328763   kbcos= -0.367074
   l= 2   rc=  1.955272   el=  0.002326   Ekb= -1.016175   kbcos= -0.009979

KBgen: Total number of  Kleinman-Bylander projectors:    9
atom: -------------------------------------------------------------------------

atom: SANKEY-TYPE ORBITALS:

SPLIT: Orbitals with angular momentum L= 0

SPLIT: Basis orbitals for state 2s

SPLIT: PAO cut-off radius determined from an
SPLIT: energy shift=  0.020212 Ry

   izeta = 1
                 lambda =    1.000000
                     rc =    4.191849
                 energy =   -0.983897
                kinetic =    0.886956
    potential(screened) =   -1.870853
       potential(ionic) =   -5.479661

SPLIT: Orbitals with angular momentum L= 1

SPLIT: Basis orbitals for state 2p

SPLIT: PAO cut-off radius determined from an
SPLIT: energy shift=  0.020212 Ry

   izeta = 1
                 lambda =    1.000000
                     rc =    4.870301
                 energy =   -0.379093
                kinetic =    2.545357
    potential(screened) =   -2.924450
       potential(ionic) =   -6.433151

POLgen: Perturbative polarization orbital with L=  2

POLgen: Polarization orbital for state 2p

   izeta = 1
                     rc =    4.870301
                 energy =    1.280953
                kinetic =    2.629601
    potential(screened) =   -1.348648
       potential(ionic) =   -4.293268
atom: Total number of Sankey-type orbitals:  9

atm_pop: Valence configuration (for local Pseudopot. screening):
 2s( 2.00)                                                            
 2p( 2.00)                                                            
Vna: chval, zval:    4.00000   4.00000

Vna:  Cut-off radius for the neutral-atom potential:   4.870301

atom: _________________________________________________________________________

prinput: Basis input ----------------------------------------------------------

PAO.BasisType split     

%block ChemicalSpeciesLabel
    1    6 C                       # Species index, atomic number, species label
%endblock ChemicalSpeciesLabel

%block PAO.Basis                 # Define Basis set
C                     2                    # Species label, number of l-shells
 n=2   0   1                         # n, l, Nzeta 
   4.192   
   1.000   
 n=2   1   1 P   1                   # n, l, Nzeta, Polarization, NzetaPol
   4.870   
   1.000   
%endblock PAO.Basis

prinput: ----------------------------------------------------------------------

Dumping basis to NetCDF file C.ion.nc
coor:   Atomic-coordinates input format  =     Cartesian coordinates
coor:                                          (in Angstroms)

siesta: System type = chain     

initatomlists: Number of atoms, orbitals, and projectors:     43   387   387

siesta: ******************** Simulation parameters ****************************
siesta:
siesta: The following are some of the parameters of the simulation.
siesta: A complete list of the parameters used, including default values,
siesta: can be found in file out.fdf
siesta:
redata: Spin configuration                          = none
redata: Number of spin components                   = 1
redata: Time-Reversal Symmetry                      = T
redata: Spin spiral                                 = F
redata: Long output                                 =   F
redata: Number of Atomic Species                    =        1
redata: Charge density info will appear in .RHO file
redata: Write Mulliken Pop.                         = Atomic and Orbital charges
redata: Matel table size (NRTAB)                    =     1024
redata: Mesh Cutoff                                 =   250.0000 Ry
redata: Net charge of the system                    =     0.0000 |e|
redata: Min. number of SCF Iter                     =        3
redata: Max. number of SCF Iter                     =      200
redata: SCF convergence failure will abort job
redata: SCF mix quantity                            = Hamiltonian
redata: Mix DM or H after convergence               =   F
redata: Recompute H after scf cycle                 =   F
redata: Mix DM in first SCF step                    =   T
redata: Write Pulay info on disk                    =   F
redata: New DM Occupancy tolerance                  = 0.000000000001
redata: No kicks to SCF
redata: DM Mixing Weight for Kicks                  =     0.5000
redata: Require Harris convergence for SCF          =   F
redata: Harris energy tolerance for SCF             =     0.000100 eV
redata: Require DM convergence for SCF              =   T
redata: DM tolerance for SCF                        =     0.000100
redata: Require EDM convergence for SCF             =   F
redata: EDM tolerance for SCF                       =     0.001000 eV
redata: Require H convergence for SCF               =   T
redata: Hamiltonian tolerance for SCF               =     0.001000 eV
redata: Require (free) Energy convergence for SCF   =   F
redata: (free) Energy tolerance for SCF             =     0.000100 eV
redata: Using Saved Data (generic)                  =   F
redata: Use continuation files for DM               =   T
redata: Neglect nonoverlap interactions             =   F
redata: Method of Calculation                       = Transiesta
redata: Fix the spin of the system                  =   F
redata: Dynamics option                             = Single-point calculation
mix.SCF: Pulay mixing                            = Pulay
mix.SCF:    Variant                              = stable
mix.SCF:    History steps                        = 6
mix.SCF:    Linear mixing weight                 =     0.050000
mix.SCF:    Mixing weight                        =     0.050000
mix.SCF:    SVD condition                        = 0.1000E-07
redata: Save all siesta data in one NC              =   F
redata: ***********************************************************************

%block SCF.Mixers
  Pulay
%endblock SCF.Mixers

%block SCF.Mixer.Pulay
  # Mixing method
  method pulay
  variant stable

  # Mixing options
  weight 0.0500
  weight.linear 0.0500
  history 6
%endblock SCF.Mixer.Pulay

DM_history_depth set to one: no extrapolation allowed by default for geometry relaxation
Size of DM history Fstack: 1
Total number of electrons:   172.000000
Total ionic charge:   172.000000

* ProcessorY, Blocksize:    2  24


* Orbital distribution balance (max,min):    51    48

k-point displ. along   1 input, could be:     0.00    0.50
k-point displ. along   3 input, could be:     0.00    0.50
 Kpoints in:            4 . Kpoints trimmed:            4

siesta: k-grid: Number of k-points =     4
siesta: k-grid: Cutoff (effective) =     6.000 Ang
siesta: k-grid: Supercell and displacements
siesta: k-grid:    2   0   0      0.000
siesta: k-grid:    0   1   0      0.000
siesta: k-grid:    0   0   2      0.000

diag: Algorithm                                     = D&C
diag: Parallel over k                               =   F
diag: Use parallel 2D distribution                  =   T
diag: Parallel block-size                           = 24
diag: Parallel distribution                         =     2 x     4
diag: Used triangular part                          = Lower
diag: Absolute tolerance                            =  0.100E-15
diag: Orthogonalization factor                      =  0.100E-05
diag: Memory factor                                 =  1.0000

superc: Internal auxiliary supercell:     1 x     1 x     3  =       3
superc: Number of atoms, orbitals, and projectors:    129   1161   1161

 Kpoints in:            1 . Kpoints trimmed:            1

transiesta: k-grid: Number of Green function k-points =     1
transiesta: k-grid: Supercell and displacements
transiesta: k-grid:    1   0   0      0.000
transiesta: k-grid:    0   1   0      0.000
transiesta: k-grid:    0   0   1      0.000

ts: **************************************************************
ts: Voltage                                         =    0.0000 Volts
ts: Save H and S matrices                           =    T
ts: Electronic temperature                          =  299.997806 K
ts: Transport individually selected for electrodes
ts: Fixing Hartree potential at cell boundary       =    -C+C
ts: Fix Hartree potential fraction                  =    1.0000
ts: Hartree potential offset                        =    0.000000 eV
ts: Solution method                                 =    BTD
ts: BTD pivoting method                             =    atom+GGPS
ts: BTD creation algorithm                          =    speed
ts: SCF DM tolerance                                = 0.100E-03
ts: SCF Hamiltonian tolerance                       =    0.001000 eV
ts: SCF converge charge                             =    T
ts: SCF charge tolerance                            = 0.172E+00
ts: Initialize DM by                                =    diagon
ts: Will not correct charge fluctuations
ts: TS.SCF mixing options same as SCF
ts:           >> Electrodes << 
ts: >> el-1
ts:   Electrode cell pivoting: E1, E2, E3           = A1, A2, A3
ts:   GF file                                       = term3.TSGFel-1
ts:   Reuse existing GF-file                        =    T
ts:   Electrode TSHS file                           = ../elec-x/elec-x.TSHS
ts:   # atoms used in electrode                     =    4
ts:   Electrode Bloch unity [E1 x E2 x E3]          = 1 x 1 x 1
ts:   Position in geometry                          = 1 -- 4
ts:   Semi-infinite direction for electrode         = negative wrt. E1
ts:   Chemical shift                                =    0.000000 eV
ts:   Electronic temperature                        =  299.997806 K
ts:   Gamma-only electrode                          =    T
ts:   Bulk H, S in electrode region                 =    T
ts:   Initial DM for electrodes                     = diagon
ts:   Cross-terms are updated
ts:   Manual delta-Ef shift                         =    0.000000 eV
ts:   Electrode self-energy imaginary Eta           =  0.1000E-02 eV
ts:   Electrode self-energy accuracy                =  0.1000E-12 eV
ts:   Electrode inter-layer distance (semi-inf)     =    1.2700 Ang
ts: >> el-3
ts:   Electrode cell pivoting: E1, E2, E3           = A3, A2, A1
ts:   GF file                                       = term3.TSGFel-3
ts:   Reuse existing GF-file                        =    T
ts:   Electrode TSHS file                           = ../elec-z/elec-z.TSHS
ts:   # atoms used in electrode                     =    4
ts:   Electrode Bloch unity [E1 x E2 x E3]          = 1 x 1 x 1
ts:   Position in geometry                          = 13 -- 16
ts:   Semi-infinite direction for electrode         = negative wrt. E1
ts:   Chemical shift                                =    0.000000 eV
ts:   Electronic temperature                        =  299.997806 K
ts:   Gamma-only electrode                          =    T
ts:   Bulk H, S in electrode region                 =    T
ts:   Initial DM for electrodes                     = diagon
ts:   Cross-terms are updated
ts:   Manual delta-Ef shift                         =    0.000000 eV
ts:   Electrode self-energy imaginary Eta           =  0.1000E-02 eV
ts:   Electrode self-energy accuracy                =  0.1000E-12 eV
ts:   Electrode inter-layer distance (semi-inf)     =    1.2700 Ang
ts: >> el-4
ts:   Electrode cell pivoting: E1, E2, E3           = A3, A2, A1
ts:   GF file                                       = term3.TSGFel-4
ts:   Reuse existing GF-file                        =    T
ts:   Electrode TSHS file                           = ../elec-z/elec-z.TSHS
ts:   # atoms used in electrode                     =    4
ts:   Electrode Bloch unity [E1 x E2 x E3]          = 1 x 1 x 1
ts:   Position in geometry                          = 33 -- 36
ts:   Semi-infinite direction for electrode         = positive wrt. E1
ts:   Chemical shift                                =    0.000000 eV
ts:   Electronic temperature                        =  299.997806 K
ts:   Gamma-only electrode                          =    T
ts:   Bulk H, S in electrode region                 =    T
ts:   Initial DM for electrodes                     = diagon
ts:   Cross-terms are updated
ts:   Manual delta-Ef shift                         =    0.000000 eV
ts:   Electrode self-energy imaginary Eta           =  0.1000E-02 eV
ts:   Electrode self-energy accuracy                =  0.1000E-12 eV
ts:   Electrode inter-layer distance (semi-inf)     =    1.2700 Ang
ts:  ----------------- Contour ----------------- 
ts:            >> Residual contour << 
ts: Pole chemical potential                         =    0.0000 eV
ts:    Chemical potential temperature               =  299.9978 K
ts:    Number of poles                              =   10
ts:    Top energy point                             =    1.6243 eV
ts:          >> Equilibrium contour << 
ts: Contour name                                    =    TS.Contour.C-high
ts:   circle contour E_min                          =  -40.0000 eV
ts:   circle contour E_max                          =   -0.2585 eV
ts:   circle contour points                         =   34
ts:   circle contour method                         =    Gauss-Legendre
ts: Contour name                                    =    TS.Contour.T-high
ts:   tail contour E_min                            =   -0.2585 eV
ts:   tail contour E_max                            =     Infinity
ts:   tail contour points                           =   12
ts:   tail contour method                           =    Gauss-Fermi (0kT)
ts: **************************************************************

************************ Begin: TS CHECKS AND WARNINGS ************************
*** TranSiesta semi-infinite directions are individual ***
*** It is heavily advised to have any electrodes with no periodicity
    in the transverse directions be located as far from any cell-boundaries
    as possible. This has to do with the electrostatic potential correction. ***
************************ End: TS CHECKS AND WARNINGS **************************


>>> TranSiesta block information for FDF-file START <<<

%block TS.ChemPots
  high
%endblock TS.ChemPots

%block TS.ChemPot.high
  mu  V
  contour.eq
   begin
    C-high
    T-high
   end
%endblock TS.ChemPot.high
%block TS.Contour.C-high
  part circle
     from -40. eV + V to -10 kT + V
      points 34
        method g-legendre
%endblock TS.Contour.C-high
%block TS.Contour.T-high
  part tail
     from prev to + inf
      points 12
        method g-fermi
%endblock TS.Contour.T-high

>>> TranSiesta block information for FDF-file END <<<


transiesta: Regions of atoms:
   ## (4): Elec.el-1
     [ 1 -- 4 ]
   ## (4): Elec.el-3
     [ 13 -- 16 ]
   ## (4): Elec.el-4
     [ 33 -- 36 ]
   -- (31): Device
     [ 5 -- 12, 17 -- 32, 37 -- 43 ]

  <sparsity:../elec-x/elec-x.TSHS
    nrows_g=36 nrows=36 sparsity=2.2500 nnzs=2916, refcount: 3>
  <sparsity:(TM [ 0,--,--] of: ../elec-x/elec-x.TSHS)
    nrows_g=36 nrows=36 sparsity=1.0000 nnzs=1296, refcount: 3>
  <sparsity:(TM [-1,--,--] of: ../elec-x/elec-x.TSHS)
    nrows_g=36 nrows=36 sparsity=.6250 nnzs=810, refcount: 3>
 el-1 principal cell is perfect!

Calculating all surface Green functions for: el-1
 Fermi level shift in electrode (chemical potential) :        0.00000  eV
 Atoms available    / used atoms   :      4 /      4
 Orbitals available / used orbitals:     36 /     36
 Total self-energy calculations: 56
 Saving surface Green functions in: term3.TSGFel-1
 Estimated file size:      1.147 MB
 Lopez Sancho, Lopez Sancho & Rubio recursive surface self-energy calculation...
 Lopez Sancho, Lopez Sancho & Rubio: Mean/std iterations:     5.0179 /     1.2886
 Lopez Sancho, Lopez Sancho & Rubio: Min/Max iterations :          4 /         10
Done creating 'term3.TSGFel-1'.

  <sparsity:../elec-z/elec-z.TSHS
    nrows_g=36 nrows=36 sparsity=2.2500 nnzs=2916, refcount: 3>
  <sparsity:(TM [ 0,--,--] of: ../elec-z/elec-z.TSHS)
    nrows_g=36 nrows=36 sparsity=1.0000 nnzs=1296, refcount: 3>
  <sparsity:(TM [-1,--,--] of: ../elec-z/elec-z.TSHS)
    nrows_g=36 nrows=36 sparsity=.6250 nnzs=810, refcount: 3>
 el-3 principal cell is perfect!

Calculating all surface Green functions for: el-3
 Fermi level shift in electrode (chemical potential) :        0.00000  eV
 Atoms available    / used atoms   :      4 /      4
 Orbitals available / used orbitals:     36 /     36
 Total self-energy calculations: 56
 Saving surface Green functions in: term3.TSGFel-3
 Estimated file size:      1.147 MB
 Lopez Sancho, Lopez Sancho & Rubio recursive surface self-energy calculation...
 Lopez Sancho, Lopez Sancho & Rubio: Mean/std iterations:     5.0179 /     1.2886
 Lopez Sancho, Lopez Sancho & Rubio: Min/Max iterations :          4 /         10
Done creating 'term3.TSGFel-3'.

  <sparsity:../elec-z/elec-z.TSHS
    nrows_g=36 nrows=36 sparsity=2.2500 nnzs=2916, refcount: 3>
  <sparsity:(TM [ 0,--,--] of: ../elec-z/elec-z.TSHS)
    nrows_g=36 nrows=36 sparsity=1.0000 nnzs=1296, refcount: 3>
  <sparsity:(TM [ 1,--,--] of: ../elec-z/elec-z.TSHS)
    nrows_g=36 nrows=36 sparsity=.6250 nnzs=810, refcount: 3>
 el-4 principal cell is perfect!

Calculating all surface Green functions for: el-4
 Fermi level shift in electrode (chemical potential) :        0.00000  eV
 Atoms available    / used atoms   :      4 /      4
 Orbitals available / used orbitals:     36 /     36
 Total self-energy calculations: 56
 Saving surface Green functions in: term3.TSGFel-4
 Estimated file size:      1.147 MB
 Lopez Sancho, Lopez Sancho & Rubio recursive surface self-energy calculation...
 Lopez Sancho, Lopez Sancho & Rubio: Mean/std iterations:     5.0179 /     1.2886
 Lopez Sancho, Lopez Sancho & Rubio: Min/Max iterations :          4 /         10
Done creating 'term3.TSGFel-4'.


                     ====================================
                        Single-point calculation
                     ====================================

superc: Internal auxiliary supercell:     1 x     1 x     3  =       3
superc: Number of atoms, orbitals, and projectors:    129   1161   1161

outcell: Unit cell vectors (Ang):
       31.750000    0.000000    0.000000
        0.000000   12.000000    0.000000
        0.000000    0.000000   31.750000

outcell: Cell vector modules (Ang)   :   31.750000   12.000000   31.750000
outcell: Cell angles (23,13,12) (deg):     90.0000     90.0000     90.0000
outcell: Cell volume (Ang**3)        :  12096.7500
<dSpData1D:S at geom step 0
  <sparsity:sparsity for geom step 0
    nrows_g=387 nrows=51 sparsity=.0309 nnzs=4626, refcount: 7>
  <dData1D:(new from dSpData1D) n=4626, refcount: 1>
refcount: 1>
new_DM -- step:     1
Initializing Density Matrix...

Attempting to read DM, EDM from TSDE file... Failed...
Attempting to read DM from file... Failed...
DM filled with atomic data:
<dSpData2D:DM initialized from atoms
  <sparsity:sparsity for geom step 0
    nrows_g=387 nrows=51 sparsity=.0309 nnzs=4626, refcount: 8>
  <dData2D:DM n=4626 m=1, refcount: 1>
refcount: 1>

transiesta: Initialization run using siesta

No. of atoms with KB's overlaping orbs in proc 0. Max # of overlaps:      18      72
New grid distribution:   1
           1       1:  160    1:   30    1:   40
           2       1:  160    1:   30   41:   80
           3       1:  160    1:   30   81:  120
           4       1:  160    1:   30  121:  160
           5       1:  160   31:   60    1:   40
           6       1:  160   31:   60   41:   80
           7       1:  160   31:   60   81:  120
           8       1:  160   31:   60  121:  160

InitMesh: MESH =   320 x   120 x   320 =    12288000
InitMesh: (bp) =   160 x    60 x   160 =     1536000
InitMesh: Mesh cutoff (required, used) =   250.000   276.377 Ry
ExtMesh (bp) on 0 =   212 x    82 x    92 =     1599328
New grid distribution:   2
           1       1:   81    1:   60    1:   73
           2      82:  160    1:   60   62:   82
           3       1:   81    1:   60   83:   90
           4      82:  160    1:   60  102:  160
           5      82:  160    1:   60    1:   61
           6       1:   81    1:   60   74:   82
           7      82:  160    1:   60   83:  101
           8       1:   81    1:   60   91:  160
New grid distribution:   3
           1       1:   81    1:   60    1:   71
           2      82:  160    1:   60   62:   82
           3       1:   80    1:   60   83:   92
           4      81:  160    1:   60  103:  160
           5      82:  160    1:   60    1:   61
           6       1:   81    1:   60   72:   82
           7      81:  160    1:   60   83:  102
           8       1:   80    1:   60   93:  160
Setting up quadratic distribution...
ExtMesh (bp) on 0 =   133 x   112 x   125 =     1862000
PhiOnMesh: Number of (b)points on node 0 =               354780
PhiOnMesh: nlist on node 0 =               493395
ts-Vha: -0.15014E-06 eV

stepf: Fermi-Dirac step function
ts-Vha: -0.66494E-01 eV

siesta: Program's energy decomposition (eV):
siesta: Ebs     =     -2722.363340
siesta: Eions   =     10719.254325
siesta: Ena     =      2174.294360
siesta: Ekin    =      4285.580540
siesta: Enl     =      -533.444587
siesta: Eso     =         0.000000
siesta: Edftu   =         0.000000
siesta: DEna    =       128.514011
siesta: DUscf   =        18.250114
siesta: DUext   =         0.000000
siesta: Exc     =     -1906.717215
siesta: eta*DQ  =         0.000000
siesta: Emadel  =         0.000000
siesta: Emeta   =         0.000000
siesta: Emolmec =         0.000000
siesta: Ekinion =         0.000000
siesta: Eharris =     -6567.289905
siesta: Etot    =     -6552.777102
siesta: FreeEng =     -6552.778197

        iscf     Eharris(eV)        E_KS(eV)     FreeEng(eV)     dDmax    Ef(eV) dHmax(eV)
   scf:    1    -6567.289905    -6552.777102    -6552.778197  1.548770 -5.996919  8.663933
timer: Routine,Calls,Time,% = IterSCF        1       2.940  58.31
ts-Vha: -0.15466E+00 eV
   scf:    2    -6559.276831    -6556.522508    -6556.523375  0.061991 -6.074251  4.951546
ts-Vha: -0.14034E+00 eV
   scf:    3    -6559.243362    -6558.524355    -6558.525504  0.075506 -6.182073  1.876158
ts-Vha: -0.28751E-01 eV
   scf:    4    -6559.101551    -6558.875467    -6558.876799  0.025719 -6.262885  1.496016
ts-Vha: -0.18787E-01 eV
   scf:    5    -6558.912647    -6558.976935    -6558.978644  0.039601 -6.483722  1.326232
ts-Vha: -0.83931E-01 eV
   scf:    6    -6558.997097    -6559.046620    -6559.048425  0.025215 -6.637614  0.640980
ts-Vha: -0.15149E-01 eV
   scf:    7    -6558.918120    -6559.023943    -6559.034690  0.027217 -6.756585  1.022620
ts-Vha: -0.48619E-01 eV
   scf:    8    -6559.062312    -6559.066561    -6559.071167  0.018755 -6.806353  0.536978
ts-Vha: -0.14480E-01 eV
   scf:    9    -6559.029712    -6559.061726    -6559.076210  0.021485 -6.849544  0.539793
ts-Vha: -0.39591E-01 eV
   scf:   10    -6559.077709    -6559.086664    -6559.093037  0.021913 -6.884111  0.408868
ts-Vha: -0.37701E-01 eV
   scf:   11    -6559.097683    -6559.093021    -6559.099414  0.003359 -6.887589  0.231710
ts-Vha: -0.34807E-01 eV
   scf:   12    -6559.095989    -6559.094775    -6559.101561  0.002072 -6.891763  0.120645
ts-Vha: -0.30439E-01 eV
   scf:   13    -6559.095670    -6559.095642    -6559.102799  0.002953 -6.897973  0.038785
ts-Vha: -0.30650E-01 eV
   scf:   14    -6559.097917    -6559.096832    -6559.103131  0.002086 -6.902535  0.027487
ts-Vha: -0.30493E-01 eV
   scf:   15    -6559.097103    -6559.096972    -6559.103183  0.000354 -6.903096  0.022020
ts-Vha: -0.30282E-01 eV
   scf:   16    -6559.098217    -6559.097607    -6559.103287  0.001057 -6.908312  0.010257
ts-Vha: -0.30454E-01 eV
   scf:   17    -6559.097783    -6559.097696    -6559.103296  0.000171 -6.910004  0.008156
ts-Vha: -0.30677E-01 eV
   scf:   18    -6559.097805    -6559.097750    -6559.103301  0.000080 -6.910819  0.006378
ts-Vha: -0.30801E-01 eV
   scf:   19    -6559.097899    -6559.097825    -6559.103307  0.000120 -6.910918  0.004057
ts-Vha: -0.30760E-01 eV
   scf:   20    -6559.097965    -6559.097896    -6559.103310  0.000127 -6.911392  0.001256
ts-Vha: -0.30752E-01 eV
   scf:   21    -6559.097906    -6559.097901    -6559.103310  0.000022 -6.911385  0.001246
ts-Vha: -0.30748E-01 eV
   scf:   22    -6559.097916    -6559.097908    -6559.103310  0.000027 -6.911511  0.001192
ts-Vha: -0.30750E-01 eV
   scf:   23    -6559.097914    -6559.097911    -6559.103310  0.000018 -6.911573  0.001013
ts-Vha: -0.30744E-01 eV
   scf:   24    -6559.097882    -6559.097897    -6559.103311  0.000054 -6.911427  0.000287

SCF Convergence by DM+H criterion
max |DM_out - DM_in|         :     0.0000538945
max |H_out - H_in|      (eV) :     0.0002874899
SCF cycle converged after 24 iterations

                     ***************************
                     *  WELCOME TO TRANSIESTA  *
                     ***************************

ts-Vha: -0.30744E-01 eV

transiesta: created H and S sparsity pattern:
  <sparsity:(M of: G ((UC of: T T T T T sparsity for geom step 0)))
    nrows_g=387 nrows=387 sparsity=.2040 nnzs=30555, refcount: 1>

transiesta: update sparsity pattern same as H and S.

transiesta: Determining an optimal tri-matrix using: atom+GGPS
transiesta: Established a near-optimal partition for the tri-diagonal matrix.
BTD partitions (3): 
  [ [180] * 2, 27 ]
transiesta: Matrix elements in % of full matrix:  93.51001 %

transiesta: mem of electrodes (static):                     0.06MB
transiesta: mem of global update arrays (static):           0.93MB
transiesta: mem of tri-diagonal matrices:                   4.27MB
transiesta: Total memory usage:                             5.27MB

transiesta: Charge distribution, target =    172.00000
Total charge                  [Q]  :    172.00000
Device                        [D]  :    121.88651
el-1                          [E1] :     15.36065
el-1                 / device [C1] :      1.37884
el-3                          [E2] :     14.59826
el-3                 / device [C2] :      1.39251
el-4                          [E3] :     14.59813
el-4                 / device [C3] :      1.39256
Other                         [O]  :      1.39255
Excess charge                [dQ]  : -2.84217E-14

ts-q:         D        E1        C1        E2        C2        E3        C3        dQ
ts-q:   122.251    15.361     1.371    14.598     1.397    14.598     1.397 0.365E+00
ts-Vha: -0.15946E+00 eV

siesta: Program's energy decomposition (eV):
siesta: Ebs     =     -2475.403537
siesta: Eions   =     10719.254325
siesta: Ena     =      2174.294360
siesta: Ekin    =      4307.966887
siesta: Enl     =      -536.849649
siesta: Eso     =         0.000000
siesta: Edftu   =         0.000000
siesta: DEna    =       115.284587
siesta: DUscf   =         9.819801
siesta: DUext   =         0.000000
siesta: Exc     =     -1912.767869
siesta: eta*DQ  =         0.000000
siesta: Emadel  =         0.000000
siesta: Emeta   =         0.000000
siesta: Emolmec =         0.000000
siesta: Ekinion =         0.000000
siesta: Eharris =     -6563.651741
siesta: Etot    =     -6561.506208
siesta: FreeEng =     -6561.506208
ts: E-dN      =         0.000000
ts: Band Stru =     -1814.293081
ts: Kinetic   =      3141.045284
ts: Ion-elec  =    -39095.652282
ts: Eharris   =     -7584.200148
ts: Etot      =     -7582.054615
ts: FreeEng   =     -7582.054615

        iscf     Eharris(eV)        E_KS(eV)     FreeEng(eV)     dDmax    Ef(eV) dHmax(eV)
ts-scf:    1    -7584.200148    -7582.054615    -7582.054615  0.167262 -6.911427  0.938546
timer: Routine,Calls,Time,% = TS             1       0.316   0.66
ts-q:         D        E1        C1        E2        C2        E3        C3        dQ
ts-q:   122.029    15.361     1.370    14.598     1.394    14.598     1.394 0.136E+00
ts-Vha: -0.71050E-01 eV
ts-scf:    2    -7578.443459    -7580.263757    -7580.263757  0.009086 -6.911427  0.399800
ts-q:         D        E1        C1        E2        C2        E3        C3        dQ
ts-q:   121.936    15.361     1.370    14.598     1.392    14.598     1.392 0.399E-01
ts-Vha: -0.38429E-01 eV
ts-scf:    3    -7578.662595    -7579.465744    -7579.465744  0.006465 -6.911427  0.255904
ts-q:         D        E1        C1        E2        C2        E3        C3        dQ
ts-q:   121.916    15.361     1.371    14.598     1.392    14.598     1.392 0.202E-01
ts-Vha: -0.35553E-01 eV
ts-scf:    4    -7579.123798    -7579.296396    -7579.296396  0.008589 -6.911427  0.168766
ts-q:         D        E1        C1        E2        C2        E3        C3        dQ
ts-q:   121.918    15.361     1.375    14.598     1.392    14.598     1.392 0.265E-01
ts-Vha: -0.36492E-01 eV
ts-scf:    5    -7579.540547    -7579.420400    -7579.420400  0.009517 -6.911427  0.093560
ts-q:         D        E1        C1        E2        C2        E3        C3        dQ
ts-q:   121.915    15.361     1.378    14.598     1.392    14.598     1.392 0.266E-01
ts-Vha: -0.37645E-01 eV
ts-scf:    6    -7579.497801    -7579.459424    -7579.459424  0.004225 -6.911427  0.041545
ts-q:         D        E1        C1        E2        C2        E3        C3        dQ
ts-q:   121.913    15.361     1.379    14.598     1.392    14.598     1.392 0.255E-01
ts-Vha: -0.37349E-01 eV
ts-scf:    7    -7579.472779    -7579.466100    -7579.466100  0.000708 -6.911427  0.028240
ts-q:         D        E1        C1        E2        C2        E3        C3        dQ
ts-q:   121.912    15.361     1.380    14.598     1.392    14.598     1.392 0.263E-01
ts-Vha: -0.37848E-01 eV
ts-scf:    8    -7579.517860    -7579.492014    -7579.492014  0.001504 -6.911427  0.018998
ts-q:         D        E1        C1        E2        C2        E3        C3        dQ
ts-q:   121.912    15.361     1.381    14.598     1.392    14.598     1.392 0.260E-01
ts-Vha: -0.37714E-01 eV
ts-scf:    9    -7579.493623    -7579.492817    -7579.492817  0.000308 -6.911427  0.015292
ts-q:         D        E1        C1        E2        C2        E3        C3        dQ
ts-q:   121.912    15.361     1.381    14.598     1.392    14.598     1.392 0.259E-01
ts-Vha: -0.37593E-01 eV
ts-scf:   10    -7579.495770    -7579.494293    -7579.494293  0.000453 -6.911427  0.007714
ts-q:         D        E1        C1        E2        C2        E3        C3        dQ
ts-q:   121.912    15.361     1.380    14.598     1.392    14.598     1.392 0.261E-01
ts-Vha: -0.37628E-01 eV
ts-scf:   11    -7579.498894    -7579.496599    -7579.496599  0.000359 -6.911427  0.004565
ts-q:         D        E1        C1        E2        C2        E3        C3        dQ
ts-q:   121.912    15.361     1.380    14.598     1.392    14.598     1.392 0.261E-01
ts-Vha: -0.37632E-01 eV
ts-scf:   12    -7579.495947    -7579.496273    -7579.496273  0.000121 -6.911427  0.003803
ts-q:         D        E1        C1        E2        C2        E3        C3        dQ
ts-q:   121.912    15.361     1.380    14.598     1.392    14.598     1.392 0.260E-01
ts-Vha: -0.37613E-01 eV
ts-scf:   13    -7579.492469    -7579.494369    -7579.494369  0.000193 -6.911427  0.002744
ts-q:         D        E1        C1        E2        C2        E3        C3        dQ
ts-q:   121.912    15.361     1.380    14.598     1.392    14.598     1.392 0.260E-01
ts-Vha: -0.37625E-01 eV
ts-scf:   14    -7579.496165    -7579.495267    -7579.495267  0.000187 -6.911427  0.001098
ts-q:         D        E1        C1        E2        C2        E3        C3        dQ
ts-q:   121.912    15.361     1.380    14.598     1.392    14.598     1.392 0.260E-01
ts-Vha: -0.37624E-01 eV
ts-scf:   15    -7579.495181    -7579.495224    -7579.495224  0.000010 -6.911427  0.001025
ts-q:         D        E1        C1        E2        C2        E3        C3        dQ
ts-q:   121.912    15.361     1.380    14.598     1.392    14.598     1.392 0.259E-01
ts-Vha: -0.37612E-01 eV
ts-scf:   16    -7579.493923    -7579.494574    -7579.494574  0.000061 -6.911427  0.000242

SCF Convergence by DM+H+dQ criterion
max |DM_out - DM_in|         :     0.0000606365
max |H_out - H_in|      (eV) :     0.0002419345
     Q(TS) - Q(dev)          :     0.0259483365
SCF cycle converged after 16 iterations

Using DM_out to compute the final energy and forces
No. of atoms with KB's overlaping orbs in proc 0. Max # of overlaps:      18      72
ts-Vha: -0.37612E-01 eV

siesta: E_KS(eV) =            -6558.9462

siesta: E_KS - E_eggbox =     -6558.9462

siesta: Atomic forces (eV/Ang):
     1   -4.491976    0.000000   -0.000006
     2    0.849622    0.000000    0.000423
     3    0.805848   -0.000000    0.000942
     4   -0.222019    0.000000    0.000549
     5    0.276487    0.000000    0.000724
     6   -0.040822    0.000000    0.000702
     7    0.029333   -0.000000    0.000535
     8   -0.019561    0.000000    0.000680
     9    0.012366   -0.000000    0.000549
    10   -0.088318    0.000000    0.000707
    11   -0.877222   -0.000000    0.002636
    12    8.847462   -0.000000   -0.007698
    13    0.000690   -0.000000   -0.064184
    14    0.000527    0.000000    0.066345
    15    0.000721    0.000000   -0.075483
    16    0.001416    0.000000    0.044152
    17   -0.000210    0.000000    0.016270
    18    0.000711   -0.000000   -0.027175
    19    0.000255    0.000000    0.036647
    20    0.001002   -0.000000   -0.034703
    21    0.003324    0.000000    0.032124
    22    0.001702   -0.000000   -0.112348
    23   -0.005842   -0.000000   -0.858484
    24   -0.056381   -0.000000    8.826365
    25   -0.033514   -0.000000   -8.853864
    26   -0.007291   -0.000000    0.858268
    27    0.001707    0.000000    0.115851
    28    0.003268   -0.000000   -0.035939
    29    0.001014    0.000000    0.045624
    30    0.000279   -0.000000   -0.041126
    31    0.000725    0.000000    0.028100
    32   -0.000245    0.000000   -0.015606
    33    0.001391    0.000000   -0.048603
    34    0.000740   -0.000000    0.086768
    35    0.000551    0.000000   -0.070617
    36    0.000696   -0.000000    0.065224
    37   -8.789300   -0.000000    0.015449
    38    1.055013    0.000000    0.001188
    39   -0.216840   -0.000000    0.000808
    40    0.420351   -0.000000    0.000491
    41   -1.060041   -0.000000    0.000326
    42   -0.888514    0.000000    0.000628
    43    4.522264   -0.000000    0.000436
----------------------------------------
   Tot    0.041368    0.000000    0.003677
----------------------------------------
   Max    8.853864
   Res    1.669451    sqrt( Sum f_i^2 / 3N )
----------------------------------------
   Max    8.853864    constrained

ts: Atomic forces (eV/Ang):
     1    0.000000    0.000000    0.000000
     2    0.000000    0.000000    0.000000
     3    0.000000    0.000000    0.000000
     4    0.000000    0.000000    0.000000
     5    0.276487    0.000000    0.000724
     6   -0.040822    0.000000    0.000702
     7    0.029333   -0.000000    0.000535
     8   -0.019561    0.000000    0.000680
     9    0.012366   -0.000000    0.000549
    10   -0.088318    0.000000    0.000707
    11   -0.877222   -0.000000    0.002636
    12    8.847462   -0.000000   -0.007698
    13    0.000000    0.000000    0.000000
    14    0.000000    0.000000    0.000000
    15    0.000000    0.000000    0.000000
    16    0.000000    0.000000    0.000000
    17   -0.000210    0.000000    0.016270
    18    0.000711   -0.000000   -0.027175
    19    0.000255    0.000000    0.036647
    20    0.001002   -0.000000   -0.034703
    21    0.003324    0.000000    0.032124
    22    0.001702   -0.000000   -0.112348
    23   -0.005842   -0.000000   -0.858484
    24   -0.056381   -0.000000    8.826365
    25   -0.033514   -0.000000   -8.853864
    26   -0.007291   -0.000000    0.858268
    27    0.001707    0.000000    0.115851
    28    0.003268   -0.000000   -0.035939
    29    0.001014    0.000000    0.045624
    30    0.000279   -0.000000   -0.041126
    31    0.000725    0.000000    0.028100
    32   -0.000245    0.000000   -0.015606
    33    0.000000    0.000000    0.000000
    34    0.000000    0.000000    0.000000
    35    0.000000    0.000000    0.000000
    36    0.000000    0.000000    0.000000
    37   -8.789300   -0.000000    0.015449
    38    1.055013    0.000000    0.001188
    39   -0.216840   -0.000000    0.000808
    40    0.420351   -0.000000    0.000491
    41   -1.060041   -0.000000    0.000326
    42   -0.888514    0.000000    0.000628
    43    4.522264   -0.000000    0.000436
----------------------------------------
   Tot    3.093162   -0.000000   -0.001835
----------------------------------------
   Max    8.853864
   Res    1.699416    sqrt( Sum f_i^2 / 3N )
----------------------------------------
   Max    8.853864    constrained

Stress tensor Voigt[x,y,z,yz,xz,xy] (kbar):       -7.58        0.00       -9.61        0.00       -0.01       -0.00
(Free)E + p*V (eV/cell)    -6515.6898
Target enthalpy (eV/cell)    -6558.9462

mulliken: Atomic and Orbital Populations:

Species: C                   
Atom  Qatom  Qorb
               2s      2py     2pz     2px     3Pdxy   3Pdyz   3Pdz2   3Pdxz   
               3Pdx2-y2
   1  4.078   1.663   0.573   0.467   1.289   0.025   0.000   0.010   0.022
              0.030
   2  3.996   0.878   1.039   0.989   1.056   0.011   0.000   0.004   0.006
              0.013
   3  3.963   0.939   0.955   0.895   1.112   0.027  -0.000   0.003   0.023
              0.009
   4  4.014   0.881   1.036   0.984   1.070   0.015   0.000   0.004   0.013
              0.012
   5  3.989   0.894   0.983   0.984   1.083   0.015  -0.000   0.004   0.016
              0.011
   6  3.995   0.901   0.978   0.979   1.086   0.017  -0.000   0.004   0.018
              0.012
   7  4.000   0.897   0.985   0.985   1.083   0.017  -0.000   0.004   0.016
              0.012
   8  3.997   0.902   0.978   0.978   1.087   0.018  -0.000   0.004   0.019
              0.012
   9  4.001   0.896   0.987   0.987   1.082   0.017  -0.000   0.004   0.015
              0.012
  10  3.997   0.908   0.974   0.973   1.089   0.017  -0.000   0.004   0.020
              0.011
  11  3.980   0.886   0.983   0.981   1.074   0.024   0.000   0.007   0.011
              0.014
  12  4.019   1.096   0.938   0.869   1.033   0.017   0.004   0.008   0.044
              0.010
  13  3.998   0.899   0.986   1.085   0.977   0.000   0.018   0.016   0.017
              0.000
  14  3.998   0.900   0.986   1.085   0.977   0.000   0.018   0.016   0.017
              0.000
  15  3.998   0.899   0.986   1.085   0.978   0.000   0.018   0.016   0.017
              0.000
  16  3.997   0.901   0.989   1.085   0.972   0.000   0.017   0.016   0.018
              0.000
  17  4.001   0.899   0.981   1.084   0.986  -0.000   0.018   0.016   0.017
             -0.000
  18  3.998   0.900   0.983   1.085   0.978  -0.000   0.017   0.016   0.018
             -0.000
  19  4.000   0.898   0.981   1.084   0.986  -0.000   0.018   0.016   0.016
             -0.000
  20  3.998   0.901   0.983   1.086   0.976  -0.000   0.017   0.016   0.019
             -0.000
  21  4.000   0.898   0.982   1.083   0.989  -0.000   0.018   0.016   0.015
             -0.000
  22  3.997   0.906   0.979   1.089   0.972  -0.000   0.016   0.015   0.020
             -0.000
  23  3.979   0.887   0.977   1.075   0.983   0.000   0.025   0.021   0.011
              0.000
  24  4.020   1.095   0.944   1.032   0.868   0.003   0.016   0.017   0.044
              0.001
  25  4.020   1.095   0.944   1.032   0.868   0.003   0.016   0.017   0.044
              0.001
  26  3.979   0.887   0.977   1.075   0.983   0.000   0.025   0.021   0.011
              0.000
  27  3.997   0.906   0.980   1.089   0.972  -0.000   0.016   0.015   0.020
             -0.000
  28  4.000   0.897   0.982   1.083   0.989  -0.000   0.018   0.016   0.015
             -0.000
  29  3.998   0.901   0.983   1.086   0.976  -0.000   0.017   0.016   0.019
             -0.000
  30  4.000   0.898   0.981   1.084   0.986  -0.000   0.018   0.016   0.016
             -0.000
  31  3.998   0.900   0.983   1.085   0.978  -0.000   0.017   0.016   0.018
             -0.000
  32  4.001   0.899   0.981   1.084   0.986  -0.000   0.018   0.016   0.017
             -0.000
  33  3.997   0.900   0.989   1.085   0.972   0.000   0.017   0.016   0.018
              0.000
  34  3.998   0.899   0.986   1.085   0.978   0.000   0.018   0.016   0.017
              0.000
  35  3.998   0.900   0.986   1.085   0.977   0.000   0.018   0.016   0.017
              0.000
  36  3.998   0.899   0.986   1.085   0.977   0.000   0.018   0.016   0.017
              0.000
  37  4.007   1.108   0.892   0.874   1.043   0.017   0.004   0.008   0.049
              0.010
  38  3.988   0.873   0.973   1.029   1.064   0.018   0.000   0.007   0.009
              0.014
  39  3.981   0.924   0.919   0.977   1.102   0.019  -0.000   0.004   0.027
              0.010
  40  4.011   0.877   0.984   1.046   1.068   0.008  -0.000   0.004   0.012
              0.012
  41  3.966   0.942   0.888   0.958   1.114   0.022  -0.000   0.003   0.028
              0.009
  42  3.997   0.877   0.984   1.049   1.054   0.005  -0.000   0.004   0.011
              0.013
  43  4.078   1.666   0.450   0.584   1.292   0.022  -0.000   0.010   0.025
              0.030

mulliken: Qtot =      172.026

transiesta: Charge distribution, target =    172.00000
Total charge                  [Q]  :    172.02595
Device                        [D]  :    121.91219
el-1                          [E1] :     15.36065
el-1                 / device [C1] :      1.38029
el-3                          [E2] :     14.59826
el-3                 / device [C2] :      1.39193
el-4                          [E3] :     14.59813
el-4                 / device [C3] :      1.39196
Other                         [O]  :      1.39255
Excess charge                [dQ]  :  2.59483E-02


siesta: Program's energy decomposition (eV):
siesta: Ebs     =     -2563.663493
siesta: Eions   =     10719.254325
siesta: Ena     =      2174.294360
siesta: Ekin    =      4296.394276
siesta: Enl     =      -534.367138
siesta: Eso     =         0.000000
siesta: Edftu   =         0.000000
siesta: DEna    =       122.004279
siesta: DUscf   =        10.062520
siesta: DUext   =         0.000000
siesta: Exc     =     -1908.080139
siesta: eta*DQ  =         0.000000
siesta: Emadel  =         0.000000
siesta: Emeta   =         0.000000
siesta: Emolmec =         0.000000
siesta: Ekinion =         0.000000
siesta: Eharris =     -6558.945516
siesta: Etot    =     -6558.946166
siesta: FreeEng =     -6558.946166
ts: E-dN      =         0.000000
ts: Band Stru =     -1892.078162
ts: Kinetic   =      3129.472672
ts: Ion-elec  =    -38993.996435
ts: Eharris   =     -7579.493923
ts: Etot      =     -7579.494574
ts: FreeEng   =     -7579.494574

siesta: Final energy (eV):
siesta:  Band Struct. =   -2563.663493
siesta:       Kinetic =    4296.394276
siesta:       Hartree =   17387.121839
siesta:       Edftu   =       0.000000
siesta:       Eso     =       0.000000
siesta:    Ext. field =       0.000000
siesta:   Exch.-corr. =   -1908.080139
siesta:  Ion-electron =  -39140.369632
siesta:       Ion-ion =   12805.987490
siesta:       Ekinion =       0.000000
siesta:         Total =   -6558.946166
ts:         E-dN  =       0.000000
ts:     Band Stru =   -1892.078162
ts:       Kinetic =    3129.472672
ts:      Ion-elec =  -38993.996435
ts:         Total =   -7579.494574
siesta:         Fermi =      -6.911427

siesta: Atomic forces (eV/Ang):
siesta:      1   -4.491976    0.000000   -0.000006
siesta:      2    0.849622    0.000000    0.000423
siesta:      3    0.805848   -0.000000    0.000942
siesta:      4   -0.222019    0.000000    0.000549
siesta:      5    0.276487    0.000000    0.000724
siesta:      6   -0.040822    0.000000    0.000702
siesta:      7    0.029333   -0.000000    0.000535
siesta:      8   -0.019561    0.000000    0.000680
siesta:      9    0.012366   -0.000000    0.000549
siesta:     10   -0.088318    0.000000    0.000707
siesta:     11   -0.877222   -0.000000    0.002636
siesta:     12    8.847462   -0.000000   -0.007698
siesta:     13    0.000690   -0.000000   -0.064184
siesta:     14    0.000527    0.000000    0.066345
siesta:     15    0.000721    0.000000   -0.075483
siesta:     16    0.001416    0.000000    0.044152
siesta:     17   -0.000210    0.000000    0.016270
siesta:     18    0.000711   -0.000000   -0.027175
siesta:     19    0.000255    0.000000    0.036647
siesta:     20    0.001002   -0.000000   -0.034703
siesta:     21    0.003324    0.000000    0.032124
siesta:     22    0.001702   -0.000000   -0.112348
siesta:     23   -0.005842   -0.000000   -0.858484
siesta:     24   -0.056381   -0.000000    8.826365
siesta:     25   -0.033514   -0.000000   -8.853864
siesta:     26   -0.007291   -0.000000    0.858268
siesta:     27    0.001707    0.000000    0.115851
siesta:     28    0.003268   -0.000000   -0.035939
siesta:     29    0.001014    0.000000    0.045624
siesta:     30    0.000279   -0.000000   -0.041126
siesta:     31    0.000725    0.000000    0.028100
siesta:     32   -0.000245    0.000000   -0.015606
siesta:     33    0.001391    0.000000   -0.048603
siesta:     34    0.000740   -0.000000    0.086768
siesta:     35    0.000551    0.000000   -0.070617
siesta:     36    0.000696   -0.000000    0.065224
siesta:     37   -8.789300   -0.000000    0.015449
siesta:     38    1.055013    0.000000    0.001188
siesta:     39   -0.216840   -0.000000    0.000808
siesta:     40    0.420351   -0.000000    0.000491
siesta:     41   -1.060041   -0.000000    0.000326
siesta:     42   -0.888514    0.000000    0.000628
siesta:     43    4.522264   -0.000000    0.000436
siesta: ----------------------------------------
siesta:    Tot    0.041368    0.000000    0.003677

ts: Atomic forces (eV/Ang):
ts:      1    0.000000    0.000000    0.000000
ts:      2    0.000000    0.000000    0.000000
ts:      3    0.000000    0.000000    0.000000
ts:      4    0.000000    0.000000    0.000000
ts:      5    0.276487    0.000000    0.000724
ts:      6   -0.040822    0.000000    0.000702
ts:      7    0.029333   -0.000000    0.000535
ts:      8   -0.019561    0.000000    0.000680
ts:      9    0.012366   -0.000000    0.000549
ts:     10   -0.088318    0.000000    0.000707
ts:     11   -0.877222   -0.000000    0.002636
ts:     12    8.847462   -0.000000   -0.007698
ts:     13    0.000000    0.000000    0.000000
ts:     14    0.000000    0.000000    0.000000
ts:     15    0.000000    0.000000    0.000000
ts:     16    0.000000    0.000000    0.000000
ts:     17   -0.000210    0.000000    0.016270
ts:     18    0.000711   -0.000000   -0.027175
ts:     19    0.000255    0.000000    0.036647
ts:     20    0.001002   -0.000000   -0.034703
ts:     21    0.003324    0.000000    0.032124
ts:     22    0.001702   -0.000000   -0.112348
ts:     23   -0.005842   -0.000000   -0.858484
ts:     24   -0.056381   -0.000000    8.826365
ts:     25   -0.033514   -0.000000   -8.853864
ts:     26   -0.007291   -0.000000    0.858268
ts:     27    0.001707    0.000000    0.115851
ts:     28    0.003268   -0.000000   -0.035939
ts:     29    0.001014    0.000000    0.045624
ts:     30    0.000279   -0.000000   -0.041126
ts:     31    0.000725    0.000000    0.028100
ts:     32   -0.000245    0.000000   -0.015606
ts:     33    0.000000    0.000000    0.000000
ts:     34    0.000000    0.000000    0.000000
ts:     35    0.000000    0.000000    0.000000
ts:     36    0.000000    0.000000    0.000000
ts:     37   -8.789300   -0.000000    0.015449
ts:     38    1.055013    0.000000    0.001188
ts:     39   -0.216840   -0.000000    0.000808
ts:     40    0.420351   -0.000000    0.000491
ts:     41   -1.060041   -0.000000    0.000326
ts:     42   -0.888514    0.000000    0.000628
ts:     43    4.522264   -0.000000    0.000436
ts: ----------------------------------------
ts:    Tot    3.093162   -0.000000   -0.001835

siesta: Stress tensor (static) (eV/Ang**3):
siesta:    -0.004733    0.000000   -0.000004
siesta:    -0.000000    0.000001   -0.000000
siesta:    -0.000004    0.000000   -0.005996

siesta: Cell volume =      12096.750000 Ang**3

siesta: Pressure (static):
siesta:                Solid            Molecule  Units
siesta:           0.00003895          0.00002671  Ry/Bohr**3
siesta:           0.00357587          0.00245228  eV/Ang**3
siesta:           5.72922981          3.92902304  kBar
(Free)E+ p_basis*V_orbitals  =       -6548.794170
(Free)Eharris+ p_basis*V_orbitals  =       -6548.793520

siesta: Electric dipole (a.u.)  =    0.290064    0.000000   -0.000000
siesta: Electric dipole (Debye) =    0.737268    0.000000   -0.000000

cite: Please see "term3.bib" for an exhaustive BiBTeX file.
cite: Please clearly indicate Siesta version in published work: v4.1-b4-351
cite: This calculation has made use of the following articles
cite: which are encouraged to be cited in a published work.
        Primary SIESTA paper
          DOI: www.doi.org/10.1088/0953-8984/14/11/302
        Primary TranSiesta paper
          DOI: www.doi.org/10.1103/PhysRevB.65.165401
        TranSiesta N-electrode
          DOI: www.doi.org/10.1016/j.cpc.2016.09.022

>> End of run:  23-JAN-2021   1:34:44
Job completed
[1611362084.417693] [n-62-21-35:17626:0]          mpool.c:42   UCX  WARN  object 0x44a1540 was not returned to mpool ucp_requests
[1611362084.421402] [n-62-21-35:17635:0]          mpool.c:42   UCX  WARN  object 0x3a61700 was not returned to mpool ucp_requests
[1611362084.422020] [n-62-21-35:17633:0]          mpool.c:42   UCX  WARN  object 0x34df380 was not returned to mpool ucp_requests
[1611362084.422858] [n-62-21-35:17629:0]          mpool.c:42   UCX  WARN  object 0x3d9d540 was not returned to mpool ucp_requests
