Siesta Version:                                        siesta-3.2
Architecture  : x86_64-unknown-linux-gnu--unknown
Compiler flags: mpiifort -O2 -g  -assume byterecl -w -fPIC -fp-model source -heap-arrays
PARALLEL version

* Running on   24 nodes in parallel
>> Start of run:   7-FEB-2024  15:56:21

                           ***********************       
                           *  WELCOME TO SIESTA  *       
                           ***********************       

reinit: Reading from standard input
************************** Dump of input data file ****************************
SystemName      Bulk SiC
SystemLabel     SiC
NumberOfSpecies	        2
NumberOfAtoms           2
%block ChemicalSpeciesLabel
  1  6   C
  2  14  Si
%endblock ChemicalSpeciesLabel
%include coord.fdf
PAO.BasisSize DZP
%block PAO.Basis
Si     3     .1124063
 n=3    0    2   E      125.1657256       5.4841374
   5.5286848            4.1057123
   1.00000000000000        1.00000000000000
 n=3    1    2   E      35.2294275       5.9545977
   6.4197861            3.9634531
   1.00000000000000        1.00000000000000
 n=3    2    1   E      60.6374417       1.9644615
   5.0273537
   1.00000000000000
%endblock PAO.Basis
%block NAO2GTO
C   5
2  0  1  5
    0.27296205E+00     0.89217489E+00
    0.17002405E+01     0.34657793E+01
    0.23803367E+01    -0.74834866E+01
    0.33324714E+01     0.50066920E+01
    0.46654598E+01    -0.11257788E+01
2  0  2  5
    0.67697238E+00     0.79798704E+01
    0.94776131E+00    -0.16809589E+02
    0.13268658E+01     0.20109284E+02
    0.18576121E+01    -0.14536880E+02
    0.26006569E+01     0.41103758E+01
2  1  1  4
    0.21813131E+00     0.26487027E+00
    0.78059056E+00     0.85548909E+00
    0.26972655E+01     0.23650972E+01
    0.37761716E+01    -0.10637839E+01
2  1  2  4
    0.52241504E+00     0.10243790E+01
    0.20456202E+01     0.20874248E+01
    0.34184379E+01     0.50654462E+00
    0.47858130E+01    -0.52188951E+00
3  2  1  3
    0.52546310E+00     0.65386969E+00
    0.31094692E+01     0.15696190E+01
    0.10200000E+03     0.61581292E+00
Si   5
3  0  1  5
    0.15909326E+00     0.64313340E+00
    0.86836496E+00     0.19646324E+01
    0.12157109E+01    -0.48790497E+01
    0.17019953E+01     0.28506480E+01
    0.29060337E+01    -0.30906785E+00
3  0  2  5
    0.38851164E+00     0.36778081E+01
    0.54391628E+00    -0.32463429E+01
    0.20857016E+01    -0.22290855E+01
    0.29199823E+01     0.30415158E+01
    0.40879751E+01    -0.10575846E+01
3  1  1  3
    0.12389670E+00     0.15037097E+00
    0.39288390E+00     0.39394490E+00
    0.72096461E+00    -0.14865807E+00
3  1  2  4
    0.41852167E+00     0.18709405E+01
    0.58593033E+00    -0.17806838E+01
    0.82030244E+00     0.66768749E+00
    0.11484234E+01    -0.14524648E+00
3  2  1  3
    0.37873881E+00     0.44332754E+00
    0.15521261E+01     0.84621145E+00
    0.31042691E+01    -0.16133756E+00
%endblock NAO2GTO
%block PS.lmax
C  2
%endblock PS.lmax
xc.functional      GGA    # Default vaxc.authors         HSE    # Default value
xc.authors        HSE06    # Default value
ElectronicTemperature  25 meV
#DM.UseSaveDM            T
MeshCutoff              250. Ry     # Equivalent planewave cutoff for the grid
MaxSCFIterations        50         # Maximum number of SCF iterations per step
DM.MixingWeight         0.2         # New DM amount for next SCF cycle
DM.Tolerance            1.d-4       # Tolerance in maximum difference
                                    # between input and output DM
DM.NumberPulay          6          # Number of SCF steps between pulay mixing
# Eigenvalue problem: order-N or diagonalization
SolutionMethod          diagon      # OrderN or Diagon
%block kgrid_Monkhorst_Pack
   8  0  0  0.5
   0  8  0  0.5
   0  0  8  0.5
%endblock kgrid_Monkhorst_Pack
MD.TypeOfRun            cg          # Type of dynamics:
MD.NumCGsteps  50
#MD.VariableCell   .true.
MD.MaxForceTol  0.01 eV/Ang
#WriteMDXmol   .true.
WriteForces  .true.
WriteCoorStep
BandLinesScale ReciprocalLatticeVectors
%block BandLines
1   0.375 0.375 0.75  K
40   0.0  0.0  0.0     \Gamma
40   0.5  0.0  0.5     X
40   0.5  0.25  0.75  W
40   0.5  0.5  0.5     L
40   0.0  0.0  0.0     \Gamma
%endblock BandLines
HFX.UseFittedNAOs                 T
HFX.TruncateDM                    T
HFX.FarField                      T
HFX.FarFieldTolerance             0.100E-05
HFX.PairListTolerance             0.100E-05
HFX.SchwarzTolerance              0.100E-05
HFX.StoreERIsTolerance            0.100E-05
HFX.GaussianEPS                   0.100E-04
HFX.Dynamic_parallel              F
HFX.FragSize                      10000
************************** End of input data file *****************************

reinit: -----------------------------------------------------------------------
reinit: System Name: Bulk SiC
reinit: -----------------------------------------------------------------------
reinit: System Label: SiC                                                         
reinit: -----------------------------------------------------------------------

initatom: Reading input for the pseudopotentials and atomic orbitals ----------
 Species number:            1  Label: C Atomic number:           6
 Species number:            2  Label: Si Atomic number:          14
Ground state valence configuration:   2s02  2p02
Reading pseudopotential information in formatted form from C.psf

Valence configuration for pseudopotential generation:
2s( 2.00) rc: 1.49
2p( 2.00) rc: 1.52
3d( 0.00) rc: 1.52
Ground state valence configuration:   3s02  3p02
Reading pseudopotential information in formatted form from Si.psf

Valence configuration for pseudopotential generation:
3s( 2.00) rc: 1.89
3p( 2.00) rc: 1.89
3d( 0.00) rc: 1.89
4f( 0.00) rc: 1.89
relmxkb: Read Max KB Ang. Momentum=    2 for species C
For Si, standard SIESTA heuristics set lmxkb to 3
 (one more than the basis l, including polarization orbitals).
Use PS.lmax or PS.KBprojectors blocks to override.

<basis_specs>
===============================================================================
C                    Z=   6    Mass=  12.010        Charge= 0.17977+309
Lmxo=1 Lmxkb= 2    BasisType=split      Semic=F
L=0  Nsemic=0  Cnfigmx=2
          n=1  nzeta=2  polorb=0
            splnorm:   0.15000    
               vcte:    0.0000    
               rinn:    0.0000    
                rcs:    0.0000      0.0000    
            lambdas:    1.0000      1.0000    
L=1  Nsemic=0  Cnfigmx=2
          n=1  nzeta=2  polorb=1
            splnorm:   0.15000    
               vcte:    0.0000    
               rinn:    0.0000    
                rcs:    0.0000      0.0000    
            lambdas:    1.0000      1.0000    
-------------------------------------------------------------------------------
L=0  Nkbl=1  erefs: 0.17977+309
L=1  Nkbl=1  erefs: 0.17977+309
L=2  Nkbl=1  erefs: 0.17977+309
===============================================================================
</basis_specs>

atom: Called for C                     (Z =   6)

read_vps: Pseudopotential generation method:
read_vps: ATM 3.2.2 Troullier-Martins                       
Total valence charge:    4.00000

read_vps: Pseudopotential includes a core correction:
read_vps: Pseudo-core for xc-correction

xc_check: Exchange-correlation functional:
xc_check: HSE06: JCP 125, 224106 (2006)
xc_check: WARNING: Pseudopotential generated with GGA Perdew, Burke & Ernzerhof 1996 functional
V l=0 = -2*Zval/r beyond r=  1.4666
V l=1 = -2*Zval/r beyond r=  1.5038
V l=2 = -2*Zval/r beyond r=  1.5038
All V_l potentials equal beyond r=  1.5038
This should be close to max(r_c) in ps generation
All pots = -2*Zval/r beyond r=  1.5038

VLOCAL1: 99.0% of the norm of Vloc inside     19.196 Ry
VLOCAL1: 99.9% of the norm of Vloc inside     43.748 Ry
atom: Maximum radius for 4*pi*r*r*local-pseudopot. charge    1.81396
atom: Maximum radius for r*vlocal+2*Zval:    1.56123
GHOST: No ghost state for L =  0
GHOST: No ghost state for L =  1
GHOST: No ghost state for L =  2

KBgen: Kleinman-Bylander projectors: 
   l= 0   rc=  1.682861   el= -1.009802   Ekb=  5.530688   kbcos=  0.309203
   l= 1   rc=  1.682861   el= -0.388707   Ekb= -3.901042   kbcos= -0.358653
   l= 2   rc=  1.769164   el=  0.001971   Ekb= -0.965319   kbcos= -0.008918

KBgen: Total number of  Kleinman-Bylander projectors:    9
atom: -------------------------------------------------------------------------

atom: SANKEY-TYPE ORBITALS:
atom: Selected multiple-zeta basis: split     

SPLIT: Orbitals with angular momentum L= 0

SPLIT: Basis orbitals for state 2s

SPLIT: PAO cut-off radius determined from an
SPLIT: energy shift=  0.020000 Ry

   izeta = 1
                 lambda =    1.000000
                     rc =    4.088342
                 energy =   -0.989106
                kinetic =    0.910778
    potential(screened) =   -1.899884
       potential(ionic) =   -5.496861

   izeta = 2
                 rmatch =    3.347176
              splitnorm =    0.150000
                 energy =   -0.834819
                kinetic =    1.378175
    potential(screened) =   -2.212994
       potential(ionic) =   -6.037557

SPLIT: Orbitals with angular momentum L= 1

SPLIT: Basis orbitals for state 2p

SPLIT: PAO cut-off radius determined from an
SPLIT: energy shift=  0.020000 Ry

   izeta = 1
                 lambda =    1.000000
                     rc =    4.870301
                 energy =   -0.368906
                kinetic =    2.525433
    potential(screened) =   -2.894339
       potential(ionic) =   -6.379903

   izeta = 2
                 rmatch =    3.475094
              splitnorm =    0.150000
                 energy =   -0.205960
                kinetic =    3.776072
    potential(screened) =   -3.982032
       potential(ionic) =   -7.825622

POLgen: Perturbative polarization orbital with L=  2

POLgen: Polarization orbital for state 2p

   izeta = 1
                     rc =    4.870301
                 energy =    1.296406
                kinetic =    2.643413
    potential(screened) =   -1.347008
       potential(ionic) =   -4.301419
atom: Total number of Sankey-type orbitals: 13

atm_pop: Valence configuration (for local Pseudopot. screening):
 2s( 2.00)                                                            
 2p( 2.00)                                                            
Vna: chval, zval:    4.00000   4.00000

Vna:  Cut-off radius for the neutral-atom potential:   4.870301
comcore: Pseudo-core radius Rcore=  1.791422

atom: _________________________________________________________________________

<basis_specs>
===============================================================================
Si                   Z=  14    Mass=  28.090        Charge= 0.11241    
Lmxo=2 Lmxkb= 3    BasisType=split      Semic=F
L=0  Nsemic=0  Cnfigmx=3
          n=1  nzeta=2  polorb=0
            splnorm:   0.15000    
               vcte:    125.17    
               rinn:    5.4841    
                rcs:    5.5287      4.1057    
            lambdas:    1.0000      1.0000    
L=1  Nsemic=0  Cnfigmx=3
          n=1  nzeta=2  polorb=0
            splnorm:   0.15000    
               vcte:    35.229    
               rinn:    5.9546    
                rcs:    6.4198      3.9635    
            lambdas:    1.0000      1.0000    
L=2  Nsemic=0  Cnfigmx=3
          n=1  nzeta=1  polorb=0
            splnorm:   0.15000    
               vcte:    60.637    
               rinn:    1.9645    
                rcs:    5.0274    
            lambdas:    1.0000    
-------------------------------------------------------------------------------
L=0  Nkbl=1  erefs: 0.17977+309
L=1  Nkbl=1  erefs: 0.17977+309
L=2  Nkbl=1  erefs: 0.17977+309
L=3  Nkbl=1  erefs: 0.17977+309
===============================================================================
</basis_specs>

atom: Called for Si                    (Z =  14)

read_vps: Pseudopotential generation method:
read_vps: ATM3      Troullier-Martins                       
Total valence charge:    4.00000

xc_check: Exchange-correlation functional:
xc_check: HSE06: JCP 125, 224106 (2006)
xc_check: WARNING: Pseudopotential generated with GGA Perdew, Burke & Ernzerhof 1996 functional
V l=0 = -2*Zval/r beyond r=  2.7826
V l=1 = -2*Zval/r beyond r=  2.7826
V l=2 = -2*Zval/r beyond r=  2.7826
V l=3 = -2*Zval/r beyond r=  2.7826
All V_l potentials equal beyond r=  1.8652
This should be close to max(r_c) in ps generation
All pots = -2*Zval/r beyond r=  2.7826
Using large-core scheme for Vlocal

atom: Estimated core radius    2.78258

atom: Including non-local core corrections could be a good idea
atom: Maximum radius for 4*pi*r*r*local-pseudopot. charge    3.07525
atom: Maximum radius for r*vlocal+2*Zval:    2.81758
GHOST: No ghost state for L =  0
GHOST: No ghost state for L =  1
GHOST: No ghost state for L =  2
GHOST: No ghost state for L =  3

KBgen: Kleinman-Bylander projectors: 
   l= 0   rc=  1.936440   el= -0.791474   Ekb=  4.527346   kbcos=  0.300929
   l= 1   rc=  1.936440   el= -0.300649   Ekb=  1.471620   kbcos=  0.304055
   l= 2   rc=  1.936440   el=  0.001958   Ekb= -2.865202   kbcos= -0.050894
   l= 3   rc=  1.936440   el=  0.003046   Ekb= -0.889187   kbcos= -0.005274

KBgen: Total number of  Kleinman-Bylander projectors:   16
atom: -------------------------------------------------------------------------

atom: SANKEY-TYPE ORBITALS:
atom: Selected multiple-zeta basis: split     

atom: basis set generated (by rescaling the valence charge)
atom: for a cation of charge   0.1124

SPLIT: Orbitals with angular momentum L= 0

SPLIT: Basis orbitals for state 3s

   izeta = 1
                 lambda =    1.000000
                     rc =    5.533999
                 energy =   -0.866052
                kinetic =    0.546437
    potential(screened) =   -1.412489
       potential(ionic) =   -3.776308

   izeta = 2
                 rmatch =    4.099641
              splitnorm =    0.231251
                 energy =   -0.702559
                kinetic =    0.987545
    potential(screened) =   -1.690104
       potential(ionic) =   -4.179991

SPLIT: Orbitals with angular momentum L= 1

SPLIT: Basis orbitals for state 3p

   izeta = 1
                 lambda =    1.000000
                     rc =    6.429618
                 energy =   -0.360210
                kinetic =    0.888968
    potential(screened) =   -1.249177
       potential(ionic) =   -3.434556

   izeta = 2
                 rmatch =    3.998416
              splitnorm =    0.351226
                 energy =   -0.078925
                kinetic =    1.692243
    potential(screened) =   -1.771168
       potential(ionic) =   -4.238643

SPLIT: Orbitals with angular momentum L= 2

SPLIT: Basis orbitals for state 3d

   izeta = 1
                 lambda =    1.000000
                     rc =    5.007352
                 energy =    0.782048
                kinetic =    3.065277
    potential(screened) =   -2.283229
       potential(ionic) =   -4.711233
atom: Total number of Sankey-type orbitals: 13

atm_pop: Valence configuration (for local Pseudopot. screening):
 3s( 2.00)                                                            
 3p( 2.00)                                                            
 3d( 0.00)                                                            
Vna: chval, zval:    4.00000   4.00000

Vna:  Cut-off radius for the neutral-atom potential:   6.429618

atom: _________________________________________________________________________

prinput: Basis input ----------------------------------------------------------

PAO.BasisType split     

%block ChemicalSpeciesLabel
    1    6 C                       # Species index, atomic number, species label
    2   14 Si                      # Species index, atomic number, species label
%endblock ChemicalSpeciesLabel

%block PAO.Basis                 # Define Basis set
C                     2                    # Species label, number of l-shells
 n=2   0   2                         # n, l, Nzeta 
   4.088      3.347   
   1.000      1.000   
 n=2   1   2 P   1                   # n, l, Nzeta, Polarization, NzetaPol
   4.870      3.475   
   1.000      1.000   
Si                    3   0.112            # Label, l-shells, ionic net charge
 n=3   0   2                         # n, l, Nzeta 
   5.534      4.100   
   1.000      1.000   
 n=3   1   2                         # n, l, Nzeta 
   6.430      3.998   
   1.000      1.000   
 n=3   2   1                         # n, l, Nzeta 
   5.007   
   1.000   
%endblock PAO.Basis

prinput: ----------------------------------------------------------------------

 Read NAO2GTO from input fdf file
nao2gto_transfer: isp, inlz, ipgf, pgf_radius =     1    1    1     6.49444
nao2gto_transfer: isp, inlz, ipgf, pgf_radius =     1    1    2     2.60218
nao2gto_transfer: isp, inlz, ipgf, pgf_radius =     1    1    3     2.19925
nao2gto_transfer: isp, inlz, ipgf, pgf_radius =     1    1    4     1.85870
nao2gto_transfer: isp, inlz, ipgf, pgf_radius =     1    1    5     1.57089
nao2gto_transfer: is, inlz, fittedcut, origincut =     1    1     6.49444     4.08834
nao2gto_transfer: isp, inlz, ipgf, pgf_radius =     1    2    1     4.12389
nao2gto_transfer: isp, inlz, ipgf, pgf_radius =     1    2    2     3.48533
nao2gto_transfer: isp, inlz, ipgf, pgf_radius =     1    2    3     2.94564
nao2gto_transfer: isp, inlz, ipgf, pgf_radius =     1    2    4     2.48952
nao2gto_transfer: isp, inlz, ipgf, pgf_radius =     1    2    5     2.10403
nao2gto_transfer: is, inlz, fittedcut, origincut =     1    2     4.12389     3.34718
nao2gto_transfer: isp, inlz, ipgf, pgf_radius =     1    3    1     7.88982
nao2gto_transfer: isp, inlz, ipgf, pgf_radius =     1    3    2     4.06773
nao2gto_transfer: isp, inlz, ipgf, pgf_radius =     1    3    3     2.13289
nao2gto_transfer: isp, inlz, ipgf, pgf_radius =     1    3    4     1.78968
nao2gto_transfer: is, inlz, fittedcut, origincut =     1    3     7.88982     4.87030
nao2gto_transfer: isp, inlz, ipgf, pgf_radius =     1    4    1     5.01232
nao2gto_transfer: isp, inlz, ipgf, pgf_radius =     1    4    2     2.46350
nao2gto_transfer: isp, inlz, ipgf, pgf_radius =     1    4    3     1.88503
nao2gto_transfer: isp, inlz, ipgf, pgf_radius =     1    4    4     1.58159
nao2gto_transfer: is, inlz, fittedcut, origincut =     1    4     5.01232     3.47509
nao2gto_transfer: isp, inlz, ipgf, pgf_radius =     1    5    1     5.31693
nao2gto_transfer: isp, inlz, ipgf, pgf_radius =     1    5    2     2.03987
nao2gto_transfer: isp, inlz, ipgf, pgf_radius =     1    5    3     0.29862
nao2gto_transfer: is, inlz, fittedcut, origincut =     1    5     5.31693     4.87030
nao2gto_transfer: isp, inlz, ipgf, pgf_radius =     2    1    1     8.50681
nao2gto_transfer: isp, inlz, ipgf, pgf_radius =     2    1    2     3.64118
nao2gto_transfer: isp, inlz, ipgf, pgf_radius =     2    1    3     3.07736
nao2gto_transfer: isp, inlz, ipgf, pgf_radius =     2    1    4     2.60084
nao2gto_transfer: isp, inlz, ipgf, pgf_radius =     2    1    5     1.99041
nao2gto_transfer: is, inlz, fittedcut, origincut =     2    1     8.50681     5.53400
nao2gto_transfer: isp, inlz, ipgf, pgf_radius =     2    2    1     5.44366
nao2gto_transfer: isp, inlz, ipgf, pgf_radius =     2    2    2     4.60073
nao2gto_transfer: isp, inlz, ipgf, pgf_radius =     2    2    3     2.34945
nao2gto_transfer: isp, inlz, ipgf, pgf_radius =     2    2    4     1.98565
nao2gto_transfer: isp, inlz, ipgf, pgf_radius =     2    2    5     1.67818
nao2gto_transfer: is, inlz, fittedcut, origincut =     2    2     5.44366     4.09964
nao2gto_transfer: isp, inlz, ipgf, pgf_radius =     2    3    1    10.58132
nao2gto_transfer: isp, inlz, ipgf, pgf_radius =     2    3    2     5.81234
nao2gto_transfer: isp, inlz, ipgf, pgf_radius =     2    3    3     4.23937
nao2gto_transfer: is, inlz, fittedcut, origincut =     2    3    10.58132     6.42962
nao2gto_transfer: isp, inlz, ipgf, pgf_radius =     2    4    1     5.62453
nao2gto_transfer: isp, inlz, ipgf, pgf_radius =     2    4    2     4.72209
nao2gto_transfer: isp, inlz, ipgf, pgf_radius =     2    4    3     3.96408
nao2gto_transfer: isp, inlz, ipgf, pgf_radius =     2    4    4     3.32743
nao2gto_transfer: is, inlz, fittedcut, origincut =     2    4     5.62453     3.99842
nao2gto_transfer: isp, inlz, ipgf, pgf_radius =     2    5    1     6.33622
nao2gto_transfer: isp, inlz, ipgf, pgf_radius =     2    5    2     2.96987
nao2gto_transfer: isp, inlz, ipgf, pgf_radius =     2    5    3     2.04172
nao2gto_transfer: is, inlz, fittedcut, origincut =     2    5     6.33622     5.00735
%block NAO2GTO
C   5
2  0  1  5
       0.272962050     0.892174890
       1.700240500     3.465779300
       2.380336700    -7.483486600
       3.332471400     5.006692000
       4.665459800    -1.125778800
2  0  2  5
       0.676972380     7.979870400
       0.947761310   -16.809589000
       1.326865800    20.109284000
       1.857612100   -14.536880000
       2.600656900     4.110375800
2  1  1  4
       0.218131310     0.264870270
       0.780590560     0.855489090
       2.697265500     2.365097200
       3.776171600    -1.063783900
2  1  2  4
       0.522415040     1.024379000
       2.045620200     2.087424800
       3.418437900     0.506544620
       4.785813000    -0.521889510
2  2  1  3
       0.525463100     0.653869690
       3.109469200     1.569619000
     102.000000000     0.615812920
Si   5
3  0  1  5
       0.159093260     0.643133400
       0.868364960     1.964632400
       1.215710900    -4.879049700
       1.701995300     2.850648000
       2.906033700    -0.309067850
3  0  2  5
       0.388511640     3.677808100
       0.543916280    -3.246342900
       2.085701600    -2.229085500
       2.919982300     3.041515800
       4.087975100    -1.057584600
3  1  1  3
       0.123896700     0.150370970
       0.392883900     0.393944900
       0.720964610    -0.148658070
3  1  2  4
       0.418521670     1.870940500
       0.585930330    -1.780683800
       0.820302440     0.667687490
       1.148423400    -0.145246480
3  2  1  3
       0.378738810     0.443327540
       1.552126100     0.846211450
       3.104269100    -0.161337560
%endblock NAO2GTO
 Use fitted NAOs as new basis
coor:   Atomic-coordinates input format  =     Fractional

siesta: Atomic coordinates (Bohr) and species
siesta:      0.00000   0.00000   0.00000  1        1
siesta:      2.06216   2.06216   2.06216  2        2

siesta: System type = bulk      

initatomlists: Number of atoms, orbitals, and projectors:      2    26    25

siesta: ******************** Simulation parameters ****************************
siesta:
siesta: The following are some of the parameters of the simulation.
siesta: A complete list of the parameters used, including default values,
siesta: can be found in file out.fdf
siesta:
redata: Non-Collinear-spin run           =     F
redata: SpinPolarized (Up/Down) run      =     F
redata: Number of spin components        =     1
redata: Long output                      =     F
redata: Number of Atomic Species         =        2
redata: Charge density info will appear in .RHO file
redata: Write Mulliken Pop.              =     NO
redata: Mesh Cutoff                      =   250.0000  Ry
redata: Net charge of the system         =     0.0000 |e|
redata: Max. number of SCF Iter          =       50
redata: Performing Pulay mixing using    =     6 iterations
redata: Mix DM in first SCF step ?       =     F
redata: Write Pulay info on disk?        =     F
redata: Discard 1st Pulay DM after  kick =     F
redata: New DM Mixing Weight             =     0.2000
redata: New DM Occupancy tolerance       = 0.000000000001
redata: No kicks to SCF
redata: DM Mixing Weight for Kicks       =     0.5000
redata: DM Tolerance for SCF             =     0.000100
redata: Require Energy convergence for SCF =     F
redata: DM Energy tolerance for SCF      =     0.000100 eV
redata: Require Harris convergence for SCF =     F
redata: DM Harris energy tolerance for SCF =     0.000100 eV
redata: Using Saved Data (generic)   =     F
redata: Use continuation files for DM    =     F
redata: Neglect nonoverlap interactions  =     F
redata: Method of Calculation            =     Diagonalization
redata: Divide and Conquer               =     T
redata: Electronic Temperature           =     0.0018  Ry
redata: Fix the spin of the system       =     F
redata: Dynamics option                  =     CG coord. optimization
redata: Variable cell                    =     F
redata: Use continuation files for CG    =     F
redata: Max atomic displ per move        =     0.2000  Bohr
redata: Maximum number of CG moves       =       50
redata: Force tolerance                  =     0.0004  Ry/Bohr
redata: ***********************************************************************
Total number of electrons:     8.000000
Total ionic charge:     8.000000

* ProcessorY, Blocksize:    4   2

 Kpoints in:          256 . Kpoints trimmed:          256

siesta: k-grid: Number of k-points =   256
siesta: k-grid: Cutoff (effective) =    12.346 Ang
siesta: k-grid: Supercell and displacements
siesta: k-grid:    8   0   0      0.500
siesta: k-grid:    0   8   0      0.500
siesta: k-grid:    0   0   8      0.500
Naive supercell factors:     9    9    9

superc: Internal auxiliary supercell:     9 x     9 x     9  =     729
superc: Number of atoms, orbitals, and projectors:   1458  18954  18225

* Maximum dynamic memory allocated =     2 MB

siesta:                 ==============================
                            Begin CG move =      0
                        ==============================

outcoor: Atomic coordinates (fractional):                   
    0.00000000    0.00000000    0.00000000   1       1  C
    0.25000000    0.25000000    0.25000000   2       2  Si

superc: Internal auxiliary supercell:     9 x     9 x     9  =     729
superc: Number of atoms, orbitals, and projectors:   1458  18954  18225

outcell: Unit cell vectors (Ang):
        0.000000    2.182500    2.182500
        2.182500    0.000000    2.182500
        2.182500    2.182500    0.000000

outcell: Cell vector modules (Ang)   :    3.086521    3.086521    3.086521
outcell: Cell angles (23,13,12) (deg):     60.0000     60.0000     60.0000
outcell: Cell volume (Ang**3)        :     20.7918
New_DM. Step:     1
Initializing Density Matrix...

InitMesh: MESH =    24 x    24 x    24 =       13824
InitMesh: Mesh cutoff (required, used) =   250.000   250.655 Ry

 Input, default information for hybrid DFT calculations

 Hybrid DFT :: HSE06
 Omega =    0.110
Schwarz tolerance = .1D-05
pairlist tolerance = .1D-05
Stored tolerance = .1D-05
Farfield tolerance =.1D-05
On_the_fly =   F
use_DM_trunc =   T
Farfield =   T
Dynamic parallel =   F
Dynamic tasksize =    10000
HFX.UseFittedNAOs                    T
HFX.FitDataPoints               500
HFX.MaximumNumberGaussians-S                  6
HFX.MaximumNumberGaussians-P                  5
HFX.MaximumNumberGaussians-D                  4
HFX.SeparationExponents                 0.140E+01
HFX.ToleranceFit                 0.100E-02
HFX.GaussianEPS                 0.100E-04
 max_eri_prescreen   1.14488780001167     
 max0 =   0.930726634684105     
list_ij:          2130
list_kl:       1552770
max_eri 1.144887800
  1.000000000000000E-006  -6.00000000000000     
 HFX energy:         -16.542652  eV

* Maximum dynamic memory allocated =  1467 MB

stepf: Fermi-Dirac step function

siesta: Program's energy decomposition (eV):
siesta: Ebs     =      -106.824461
siesta: Eions   =       445.581551
siesta: Ena     =       109.614336
siesta: Ekin    =       132.351767
siesta: Enl     =        20.291978
siesta: DEna    =        -0.000000
siesta: DUscf   =         0.000000
siesta: DUext   =         0.000000
siesta: Exc     =       -85.062653
siesta: eta*DQ  =         0.000000
siesta: Emadel  =         0.000000
siesta: Emeta   =         0.000000
siesta: Emolmec =         0.000000
siesta: Ekinion =         0.000000
siesta: Eharris =      -262.880487
siesta: Etot    =      -268.386124
siesta: FreeEng =      -268.386124

siesta: iscf   Eharris(eV)      E_KS(eV)   FreeEng(eV)   dDmax  Ef(eV)
siesta:    1     -262.8805     -268.3861     -268.3861  1.4864 -5.0280
timer: Routine,Calls,Time,% = IterSCF        1    1163.515  98.88
elaps: Routine,Calls,Wall,% = IterSCF        1      48.495  98.86
 HFX energy:         -15.792482  eV
siesta:    2     -264.8588     -263.6590     -263.6590  0.3059 -4.4606
 HFX energy:         -15.466113  eV
siesta:    3     -264.3543     -264.2216     -264.2216  0.1294 -3.9451
 HFX energy:         -15.314276  eV
siesta:    4     -264.2672     -264.0802     -264.0802  0.0114 -3.9161
 HFX energy:         -15.316759  eV
siesta:    5     -264.2672     -264.1174     -264.1174  0.0092 -3.9414
 HFX energy:         -15.337797  eV
siesta:    6     -264.2674     -264.2468     -264.2468  0.0019 -4.0220
 HFX energy:         -15.342192  eV
siesta:    7     -264.2674     -264.2706     -264.2706  0.0008 -3.9963
 HFX energy:         -15.342415  eV
siesta:    8     -264.2673     -264.2701     -264.2701  0.0006 -3.9764
 HFX energy:         -15.342635  eV
siesta:    9     -264.2673     -264.2705     -264.2705  0.0004 -3.9876
 HFX energy:         -15.342832  eV
siesta:   10     -264.2673     -264.2697     -264.2697  0.0004 -4.0020
 HFX energy:         -15.343156  eV
siesta:   11     -264.2673     -264.2698     -264.2698  0.0003 -4.0051
 HFX energy:         -15.343265  eV
siesta:   12     -264.2673     -264.2695     -264.2695  0.0002 -4.0083
 HFX energy:         -15.343326  eV
siesta:   13     -264.2674     -264.2689     -264.2689  0.0001 -4.0073
 HFX energy:         -15.343331  eV
siesta:   14     -264.2673     -264.2685     -264.2685  0.0001 -3.9996
 HFX energy:         -15.343315  eV
siesta:   15     -264.2674     -264.2682     -264.2682  0.0001 -4.0023
 HFX energy:         -15.343294  eV
siesta:   16     -264.2674     -264.2680     -264.2680  0.0001 -3.9995
 HFX energy:         -15.343274  eV
siesta:   17     -264.2674     -264.2679     -264.2679  0.0001 -3.9957
 HFX energy:         -15.343260  eV
 To calculate HFX gradient
list_ij:          2130
list_kl:       1552770

siesta: E_KS(eV) =             -264.2678

siesta: E_KS - E_eggbox =      -264.2678

siesta: Atomic forces (eV/Ang):
     1   -0.000442   -0.000335   -0.000050
     2    0.000410    0.000289    0.000025
----------------------------------------
   Tot   -0.000032   -0.000046   -0.000025
----------------------------------------
   Max    0.000442
   Res    0.000306    sqrt( Sum f_i^2 / 3N )
----------------------------------------
   Max    0.000442    constrained

Stress-tensor-Voigt (kbar):     -530.77     -530.76     -530.69        0.09        0.05        0.05
(Free)E + p*V (eV/cell)     -257.3804
Target enthalpy (eV/cell)     -264.2678

cgvc: Finished line minimization    1.  Mean atomic displacement =    0.0000

* Maximum dynamic memory allocated =  1578 MB

outcoor: Relaxed atomic coordinates (fractional):           
    0.00000000    0.00000000    0.00000000   1       1  C
    0.25000000    0.25000000    0.25000000   2       2  Si
Computing bands...

siesta: Program's energy decomposition (eV):
siesta: Ebs     =       -99.704092
siesta: Eions   =       445.581551
siesta: Ena     =       109.614336
siesta: Ekin    =       155.740390
siesta: Enl     =         1.994053
siesta: DEna    =        -1.279109
siesta: DUscf   =         0.813215
siesta: DUext   =         0.000000
siesta: Exc     =       -85.569152
siesta: eta*DQ  =         0.000000
siesta: Emadel  =         0.000000
siesta: Emeta   =         0.000000
siesta: Emolmec =         0.000000
siesta: Ekinion =         0.000000
siesta: Eharris =      -264.267357
siesta: Etot    =      -264.267819
siesta: FreeEng =      -264.267819

siesta: Final energy (eV):
siesta:  Band Struct. =     -99.704092
siesta:       Kinetic =     155.740390
siesta:       Hartree =      32.196056
siesta:    Ext. field =       0.000000
siesta:   Exch.-corr. =     -85.569152
siesta:  Ion-electron =    -201.685386
siesta:       Ion-ion =    -164.949726
siesta:       Ekinion =       0.000000
siesta:         Total =    -264.267819

siesta: Stress tensor (static) (eV/Ang**3):
siesta:    -0.331277    0.000058    0.000033
siesta:     0.000058   -0.331269    0.000028
siesta:     0.000029    0.000031   -0.331228

siesta: Cell volume =         20.791832 Ang**3

siesta: Pressure (static):
siesta:                Solid            Molecule  Units
siesta:           0.00360782          0.00360768  Ry/Bohr**3
siesta:           0.33125820          0.33124462  eV/Ang**3
siesta:         530.73988652        530.71813314  kBar
(Free)E+ p_basis*V_orbitals  =        -261.551738
(Free)Eharris+ p_basis*V_orbitals  =        -261.551175

* Maximum dynamic memory allocated : Node    0 =  1577 MB
* Maximum dynamic memory allocated : Node    1 =  1577 MB
* Maximum dynamic memory allocated : Node    2 =  1577 MB
* Maximum dynamic memory allocated : Node    3 =  1577 MB
* Maximum dynamic memory allocated : Node    4 =  1577 MB
* Maximum dynamic memory allocated : Node    5 =  1577 MB
* Maximum dynamic memory allocated : Node    6 =  1577 MB
* Maximum dynamic memory allocated : Node    7 =  1577 MB
* Maximum dynamic memory allocated : Node    8 =  1578 MB
* Maximum dynamic memory allocated : Node    9 =  1577 MB
* Maximum dynamic memory allocated : Node   10 =  1577 MB
* Maximum dynamic memory allocated : Node   11 =  1577 MB
* Maximum dynamic memory allocated : Node   12 =  1577 MB
* Maximum dynamic memory allocated : Node   13 =  1575 MB
* Maximum dynamic memory allocated : Node   14 =  1575 MB
* Maximum dynamic memory allocated : Node   15 =  1575 MB
* Maximum dynamic memory allocated : Node   16 =  1575 MB
* Maximum dynamic memory allocated : Node   17 =  1575 MB
* Maximum dynamic memory allocated : Node   18 =  1575 MB
* Maximum dynamic memory allocated : Node   19 =  1575 MB
* Maximum dynamic memory allocated : Node   20 =  1575 MB
* Maximum dynamic memory allocated : Node   21 =  1575 MB
* Maximum dynamic memory allocated : Node   22 =  1575 MB
* Maximum dynamic memory allocated : Node   23 =  1575 MB

* Maximum memory occured during matrixMtoO                    

timer: CPU execution times:
timer:  Routine       Calls   Time/call    Tot.time        %
timer:  siesta            1   36460.962   36460.962   100.00
timer:  Setup             1       8.960       8.960     0.02
timer:  bands             3       5.298      15.895     0.04
timer:  writewave         1       0.119       0.119     0.00
timer:  KSV_init          1       0.020       0.020     0.00
timer:  IterMD            1   36436.000   36436.000    99.93
timer:  hsparse           1       0.125       0.125     0.00
timer:  overlap           1       0.567       0.567     0.00
timer:  IterSCF          17    1956.412   33258.996    91.22
timer:  kinefsm           2       0.224       0.448     0.00
timer:  nlefsm            2      19.134      38.268     0.10
timer:  DHSCF            18    1973.944   35530.999    97.45
timer:  DHSCF1            1       3.554       3.554     0.01
timer:  DHSCF2            1     148.731     148.731     0.41
timer:  REORD           110       0.000       0.021     0.00
timer:  POISON           19       0.006       0.123     0.00
timer:  DHSCF3           18      10.235     184.225     0.51
timer:  rhoofd           18       2.895      52.119     0.14
timer:  cellXC           18       0.046       0.830     0.00
timer:  vmat             18       6.924     124.625     0.34
timer:  DHFX             18    1894.471   34100.483    93.53
timer:  HFX              18    1735.847   31245.238    85.70
timer:  MolMec            2       0.001       0.001     0.00
timer:  diagon           17      42.241     718.097     1.97
timer:  c-eigval       4553       0.077     351.570     0.96
timer:  c-buildHS      4553       0.002       9.876     0.03
timer:  cdiag          8905       0.078     695.971     1.91
timer:  cdiag1         8905       0.008      67.771     0.19
timer:  cdiag2         8905       0.014     126.528     0.35
timer:  cdiag3         8905       0.045     400.273     1.10
timer:  cdiag4         8905       0.001      13.000     0.04
timer:  c-eigvec       4352       0.084     366.223     1.00
timer:  c-buildD       4352       0.003      13.890     0.04
timer:  DHSCF4            1      23.172      23.172     0.06
timer:  dfscf             1      15.717      15.717     0.04
timer:  DFHFX             1    1070.569    1070.569     2.94
timer:  HFX_gradie        1       0.000       0.000     0.00
timer:  HFX_gradie        0    Infinity   36382.238    99.78
timer:  overfsm           1       0.037       0.037     0.00
timer:  optical           1       0.333       0.333     0.00
  

elaps: ELAPSED times:
elaps:  Routine       Calls   Time/call    Tot.time        %
elaps:  siesta            1    1519.271    1519.271   100.00
elaps:  Setup             1       0.383       0.383     0.03
elaps:  bands             3       0.222       0.667     0.04
elaps:  writewave         1       0.005       0.005     0.00
elaps:  KSV_init          1       0.001       0.001     0.00
elaps:  IterMD            1    1518.220    1518.220    99.93
elaps:  hsparse           1       0.006       0.006     0.00
elaps:  overlap           1       0.024       0.024     0.00
elaps:  IterSCF          17      81.521    1385.863    91.22
elaps:  kinefsm           2       0.007       0.013     0.00
elaps:  nlefsm            2       1.233       2.467     0.16
elaps:  DHSCF            18      82.270    1480.862    97.47
elaps:  DHSCF1            1       0.148       0.148     0.01
elaps:  DHSCF2            1       6.197       6.197     0.41
elaps:  REORD           110       0.000       0.001     0.00
elaps:  POISON           19       0.000       0.005     0.00
elaps:  DHSCF3           18       0.427       7.678     0.51
elaps:  rhoofd           18       0.092       1.651     0.11
elaps:  cellXC           18       0.002       0.036     0.00
elaps:  vmat             18       0.288       5.193     0.34
elaps:  DHFX             18      78.940    1420.912    93.53
elaps:  HFX              18      72.599    1306.778    86.01
elaps:  MolMec            2       0.000       0.001     0.00
elaps:  diagon           17       1.760      29.920     1.97
elaps:  c-eigval       4553       0.003      14.624     0.96
elaps:  c-buildHS      4553       0.000       0.564     0.04
elaps:  cdiag          8905       0.003      28.462     1.87
elaps:  cdiag1         8905       0.000       2.806     0.18
elaps:  cdiag2         8905       0.001       5.353     0.35
elaps:  cdiag3         8905       0.002      16.436     1.08
elaps:  cdiag4         8905       0.000       0.656     0.04
elaps:  c-eigvec       4352       0.003      15.051     0.99
elaps:  c-buildD       4352       0.000       0.712     0.05
elaps:  DHSCF4            1       0.705       0.705     0.05
elaps:  dfscf             1       0.389       0.389     0.03
elaps:  DFHFX             1      45.210      45.210     2.98
elaps:  HFX_gradie        1       0.000       0.000     0.00
elaps:  HFX_gradie        0    Infinity    1516.180    99.80
elaps:  overfsm           1       0.001       0.001     0.00
elaps:  optical           1       0.001       0.001     0.00
  
>> End of run:   7-FEB-2024  16:21:41
