Siesta Version  : 4.1.5
Architecture    : x86_64-intel
Compiler version: ifort (IFORT) 19.1.3.304 20200925
Compiler flags  : mpiifort -O2 -g -fPIC -fp-model source
PP flags        : -DMPI -DFC_HAVE_ABORT -DHAVE_LIBINT
Libraries       :  -L/public/software/compiler/intel/2020.update4/compilers_and_libraries_2020..4.304/linux/mkl/lib/intel64 -lmkl_intel_lp64 -lmkl_core -lmkl_sequential -lmkl_scalapack_lp64 -lmkl_blacs_intelmpi_lp64 /public/home/xmqin/MathLibs/libint/1.1.5/intel/lib/libderiv.a /public/home/xmqin/MathLibs/libint/1.1.5/intel/lib/libint.a -lpthread -lstdc++
PARALLEL version

* Running on 128 nodes in parallel
>> Start of run:  18-JUN-2025   9:31:09

                           ***********************       
                           *  WELCOME TO SIESTA  *       
                           ***********************       

reinit: Reading from standard input
reinit: Dumped input in INPUT_TMP.90111
************************** Dump of input data file ****************************
SystemName      Bulk Silisin
SystemLabel     Sibulk
NumberOfSpecies	        1
%block ChemicalSpeciesLabel
  1  14  Si
%endblock ChemicalSpeciesLabel
NumberOfAtoms           8
LatticeConstant      5.430 Ang
%block LatticeVectors
  1.00  0.00  0.00
  0.00  1.00  0.00
  0.00  0.00  1.00
%endblock LatticeVectors
AtomicCoordinatesFormat   Fractional
%block AtomicCoordinatesAndAtomicSpecies
  0.00000000000000  0.00000000000000  0.00000000000000  1
  0.00000000000000  0.50000000000000  0.50000000000000  1
  0.50000000000000  0.00000000000000  0.50000000000000  1
  0.50000000000000  0.50000000000000  0.00000000000000  1
  0.75000000000000  0.25000000000000  0.75000000000000  1
  0.25000000000000  0.25000000000000  0.25000000000000  1
  0.25000000000000  0.75000000000000  0.75000000000000  1
  0.75000000000000  0.75000000000000  0.25000000000000  1
%endblock AtomicCoordinatesAndAtomicSpecies
%block Supercell
   2   0   0
   0   2   0
   0   0   2
%endblock Supercell
kgrid.Cutoff 0. Bohr
%block PAO.Basis
Si     3    0.5564780
 n=3    0    2   E    129.4991135  5.4983922
   5.6841605               2.0421107
   1.00000000000000        1.00000000000000
 n=3    1    2   E    81.8582336   5.9078004
   6.439786                3.5339345
   1.00000000000000        1.00000000000000
 n=3    2    1   E    14.1744519   2.3574667
   3.9159002
   1.00000000000000
%endblock PAO.Basis
%block NAO2GTO
Si   5
3  0  1  5
    0.16303247E+00     0.63383670E+00
    0.72395647E+00     0.15046193E+01
    0.10135390E+01    -0.24932928E+01
    0.23816944E+01     0.10284758E+01
    0.33343721E+01    -0.39166455E+00
3  0  2  5
    0.10204082E+01     0.26922872E+01
    0.14285715E+01    -0.57983459E+01
    0.20000000E+01    -0.10201836E+02
    0.28000000E+01     0.16476430E+02
    0.39199999E+01    -0.57551709E+01
3  1  1  4
    0.15000000E+00     0.21382045E+00
    0.50330623E+00     0.44835493E+00
    0.95300463E+00    -0.31444340E+00
    0.16044378E+01     0.82939668E-01
3  1  2  4
    0.56960348E+00     0.39336859E+01
    0.79744486E+00    -0.57162678E+01
    0.11164228E+01     0.32400072E+01
    0.15629919E+01    -0.73843893E+00
3  2  1  4
    0.38934207E+00     0.46504665E+00
    0.13516736E+01     0.27829141E+00
    0.18923430E+01     0.85799466E+00
    0.26492802E+01    -0.44406486E+00
%endblock NAO2GTO
xc.functional      GGA    # Default vaxc.authors         HSE    # Default value
xc.authors        HSE06    # Default value
ElectronicTemperature  25 meV
#DM.UseSaveDM            T
MeshCutoff              250. Ry     # Equivalent planewave cutoff for the grid
MaxSCFIterations        50         # Maximum number of SCF iterations per step
DM.MixingWeight         0.2         # New DM amount for next SCF cycle
DM.Tolerance            1.d-4       # Tolerance in maximum difference
                                    # between input and output DM
DM.NumberPulay          6          # Number of SCF steps between pulay mixing
# Eigenvalue problem: order-N or diagonalization
SolutionMethod          diagon      # OrderN or Diagon
MD.TypeOfRun            cg          # Type of dynamics:
MD.NumCGsteps  0
#MD.VariableCell   .true.
MD.MaxForceTol  0.01 eV/Ang
#WriteMDXmol   .true.
WriteForces  .true.
WriteCoorStep
HFX.UseFittedNAOs  .true.
HFX.Dynamic_parallel .false.
HFX.FragSize 60000
************************** End of input data file *****************************

reinit: -----------------------------------------------------------------------
reinit: System Name: Bulk Silisin
reinit: -----------------------------------------------------------------------
reinit: System Label: Sibulk
reinit: -----------------------------------------------------------------------

initatom: Reading input for the pseudopotentials and atomic orbitals ----------
Species number:   1 Atomic number:   14 Label: Si
 
Ground state valence configuration:   3s02  3p02
Reading pseudopotential information in formatted form from Si.psf

Valence configuration for pseudopotential generation:
3s( 2.00) rc: 1.89
3p( 2.00) rc: 1.89
3d( 0.00) rc: 1.89
4f( 0.00) rc: 1.89
For Si, standard SIESTA heuristics set lmxkb to 3
 (one more than the basis l, including polarization orbitals).
Use PS.lmax or PS.KBprojectors blocks to override.

<basis_specs>
===============================================================================
Si                   Z=  14    Mass=  28.090        Charge= 0.55648    
Lmxo=2 Lmxkb= 3    BasisType=split      Semic=F
L=0  Nsemic=0  Cnfigmx=3
          i=1  nzeta=2  polorb=0  (3s)
            splnorm:   0.15000    
               vcte:    129.50    
               rinn:    5.4984    
               qcoe:    0.0000    
               qyuk:    0.0000    
               qwid:   0.10000E-01
                rcs:    5.6842      2.0421    
            lambdas:    1.0000      1.0000    
L=1  Nsemic=0  Cnfigmx=3
          i=1  nzeta=2  polorb=0  (3p)
            splnorm:   0.15000    
               vcte:    81.858    
               rinn:    5.9078    
               qcoe:    0.0000    
               qyuk:    0.0000    
               qwid:   0.10000E-01
                rcs:    6.4398      3.5339    
            lambdas:    1.0000      1.0000    
L=2  Nsemic=0  Cnfigmx=3
          i=1  nzeta=1  polorb=0  (3d)
            splnorm:   0.15000    
               vcte:    14.174    
               rinn:    2.3575    
               qcoe:    0.0000    
               qyuk:    0.0000    
               qwid:   0.10000E-01
                rcs:    3.9159    
            lambdas:    1.0000    
-------------------------------------------------------------------------------
L=0  Nkbl=1  erefs: 0.17977+309
L=1  Nkbl=1  erefs: 0.17977+309
L=2  Nkbl=1  erefs: 0.17977+309
L=3  Nkbl=1  erefs: 0.17977+309
===============================================================================
</basis_specs>

atom: Called for Si                    (Z =  14)

read_vps: Pseudopotential generation method:
read_vps: ATM3      Troullier-Martins                       
Valence charge for ps generation:    4.00000

xc_check: Exchange-correlation functional:
xc_check: Hybrid Heyd-Scuseria-Ernzerhof 2006
 (JCP 125, 224106, 2006)
xc_check: WARNING: Pseudopotential generated with GGA PBE functional
V l=0 = -2*Zval/r beyond r=  2.7826
V l=1 = -2*Zval/r beyond r=  2.7826
V l=2 = -2*Zval/r beyond r=  2.7826
V l=3 = -2*Zval/r beyond r=  2.7826
All V_l potentials equal beyond r=  1.8652
This should be close to max(r_c) in ps generation
All pots = -2*Zval/r beyond r=  2.7826
Using large-core scheme for Vlocal

atom: Estimated core radius    2.78258

atom: Including non-local core corrections could be a good idea
atom: Maximum radius for 4*pi*r*r*local-pseudopot. charge    3.07525
atom: Maximum radius for r*vlocal+2*Zval:    2.81758
GHOST: No ghost state for L =  0
GHOST: No ghost state for L =  1
GHOST: No ghost state for L =  2
GHOST: No ghost state for L =  3

KBgen: Kleinman-Bylander projectors: 
   l= 0   rc=  1.936440   el= -0.791474   Ekb=  4.527346   kbcos=  0.300929
   l= 1   rc=  1.936440   el= -0.300649   Ekb=  1.471620   kbcos=  0.304055
   l= 2   rc=  1.936440   el=  0.001958   Ekb= -2.865202   kbcos= -0.050894
   l= 3   rc=  1.936440   el=  0.003046   Ekb= -0.889187   kbcos= -0.005274

KBgen: Total number of Kleinman-Bylander projectors:   16
atom: -------------------------------------------------------------------------

atom: SANKEY-TYPE ORBITALS:
atom: Selected multiple-zeta basis: split     

atom: basis set generated (by rescaling the valence charge)
atom: for a cation of charge   0.5565

SPLIT: Orbitals with angular momentum L= 0

SPLIT: Basis orbitals for state 3s

   izeta = 1
                 lambda =    1.000000
                     rc =    5.674097
                 energy =   -1.193786
                kinetic =    0.571580
    potential(screened) =   -1.765366
       potential(ionic) =   -3.820386

   izeta = 2
                 rmatch =    2.035732
              splitnorm =    1.097306
                 energy =    5.434304
                kinetic =    4.530235
    potential(screened) =    0.904069
       potential(ionic) =   -1.842010

SPLIT: Orbitals with angular momentum L= 1

SPLIT: Basis orbitals for state 3p

   izeta = 1
                 lambda =    1.000000
                     rc =    6.429618
                 energy =   -0.660481
                kinetic =    0.968387
    potential(screened) =   -1.628868
       potential(ionic) =   -3.553429

   izeta = 2
                 rmatch =    3.528569
              splitnorm =    0.437886
                 energy =   -0.224636
                kinetic =    2.046251
    potential(screened) =   -2.270887
       potential(ionic) =   -4.455596

SPLIT: Orbitals with angular momentum L= 2

SPLIT: Basis orbitals for state 3d

   izeta = 1
                 lambda =    1.000000
                     rc =    3.899691
                 energy =    0.499133
                kinetic =    3.167061
    potential(screened) =   -2.667928
       potential(ionic) =   -4.768972
atom: Total number of Sankey-type orbitals: 13

atm_pop: Valence configuration (for local Pseudopot. screening):
 3s( 2.00)                                                            
 3p( 2.00)                                                            
 3d( 0.00)                                                            
Vna: chval, zval:    4.00000   4.00000

Vna:  Cut-off radius for the neutral-atom potential:   6.429618

atom: _________________________________________________________________________

prinput: Basis input ----------------------------------------------------------

PAO.BasisType split     

%block ChemicalSpeciesLabel
    1   14 Si                      # Species index, atomic number, species label
%endblock ChemicalSpeciesLabel

%block PAO.Basis                 # Define Basis set
Si                    3   0.556            # Label, l-shells, ionic net charge
 n=3   0   2                         # n, l, Nzeta 
   5.674      2.036   
   1.000      1.000   
 n=3   1   2                         # n, l, Nzeta 
   6.430      3.529   
   1.000      1.000   
 n=3   2   1                         # n, l, Nzeta 
   3.900   
   1.000   
%endblock PAO.Basis

prinput: ----------------------------------------------------------------------

************************ Begin: HYBRID XC INITIALIZATION **********************

nao2gto_transfer: isp, inlz, ipgf, pgf_radius =     1    1    1     7.51624
nao2gto_transfer: isp, inlz, ipgf, pgf_radius =     1    1    2     3.56682
nao2gto_transfer: isp, inlz, ipgf, pgf_radius =     1    1    3     3.01452
nao2gto_transfer: isp, inlz, ipgf, pgf_radius =     1    1    4     1.96650
nao2gto_transfer: isp, inlz, ipgf, pgf_radius =     1    1    5     1.66200
nao2gto_transfer: isp, inlz, shell_radius =     1    1     7.51624     5.67410
nao2gto_transfer: isp, inlz, ipgf, pgf_radius =     1    2    1     3.00435
nao2gto_transfer: isp, inlz, ipgf, pgf_radius =     1    2    2     2.53914
nao2gto_transfer: isp, inlz, ipgf, pgf_radius =     1    2    3     2.14597
nao2gto_transfer: isp, inlz, ipgf, pgf_radius =     1    2    4     1.81367
nao2gto_transfer: isp, inlz, ipgf, pgf_radius =     1    2    5     1.53283
nao2gto_transfer: isp, inlz, shell_radius =     1    2     3.00435     2.03573
nao2gto_transfer: isp, inlz, ipgf, pgf_radius =     1    3    1     8.70808
nao2gto_transfer: isp, inlz, ipgf, pgf_radius =     1    3    2     4.61954
nao2gto_transfer: isp, inlz, ipgf, pgf_radius =     1    3    3     3.30435
nao2gto_transfer: isp, inlz, ipgf, pgf_radius =     1    3    4     2.51294
nao2gto_transfer: isp, inlz, shell_radius =     1    3     8.70808     6.42962
nao2gto_transfer: isp, inlz, ipgf, pgf_radius =     1    4    1     4.32925
nao2gto_transfer: isp, inlz, ipgf, pgf_radius =     1    4    2     3.62850
nao2gto_transfer: isp, inlz, ipgf, pgf_radius =     1    4    3     3.04072
nao2gto_transfer: isp, inlz, ipgf, pgf_radius =     1    4    4     2.54777
nao2gto_transfer: isp, inlz, shell_radius =     1    4     4.32925     3.52857
nao2gto_transfer: isp, inlz, ipgf, pgf_radius =     1    5    1     5.71015
nao2gto_transfer: isp, inlz, ipgf, pgf_radius =     1    5    2     2.89611
nao2gto_transfer: isp, inlz, ipgf, pgf_radius =     1    5    3     2.40743
nao2gto_transfer: isp, inlz, ipgf, pgf_radius =     1    5    4     1.99995
nao2gto_transfer: isp, inlz, shell_radius =     1    5     5.71015     3.89969
nao2gto_transfer: isp, kind_radius =     1     8.70808

nao2gto_print_info: NAO2GTO fitting information -------------------------------

# %%% HYBRID XC FDF BEGIN

# XC parameters with a short-range EXX potential
XC.functional   GGA
XC.authors      HSE06

# The NAO2GTO block is structured as following:
#
#     species1 norbs_species1
#     n1 l1 zeta1 ngaussians_orbital1
#     exponent_gaussian1 coefficient_gaussian1
#     exponent_gaussian2 coefficient_gaussian2
#     exponent_gaussian3 coefficient_gaussian3
#     ...
#     n2 l2 zeta2 ngaussians_orbital2
#     exponent_gaussian1 coefficient_gaussian1
#     ...
#     species2 norbs_species2
#     ...
#
%block NAO2GTO
Si   5
3  0  1  5
    0.16303247E+00     0.63383670E+00
    0.72395647E+00     0.15046193E+01
    0.10135390E+01    -0.24932928E+01
    0.23816944E+01     0.10284758E+01
    0.33343721E+01    -0.39166455E+00
3  0  2  5
    0.10204082E+01     0.26922872E+01
    0.14285715E+01    -0.57983459E+01
    0.20000000E+01    -0.10201836E+02
    0.28000000E+01     0.16476430E+02
    0.39199999E+01    -0.57551709E+01
3  1  1  4
    0.15000000E+00     0.21382045E+00
    0.50330623E+00     0.44835493E+00
    0.95300463E+00    -0.31444340E+00
    0.16044378E+01     0.82939668E-01
3  1  2  4
    0.56960348E+00     0.39336859E+01
    0.79744486E+00    -0.57162678E+01
    0.11164228E+01     0.32400072E+01
    0.15629919E+01    -0.73843893E+00
3  2  1  4
    0.38934207E+00     0.46504665E+00
    0.13516736E+01     0.27829141E+00
    0.18923430E+01     0.85799466E+00
    0.26492802E+01    -0.44406486E+00
%endblock NAO2GTO

# Hartree-Fock exchange options
HFX.UseFittedNAOs                    T
HFX.TruncateDM                    T
HFX.DumpFitData                   T
HFX.FarField                      T
HFX.FitDataPoints               500
HFX.FarFieldTolerance     0.100E-05
HFX.PairListTolerance     0.100E-05
HFX.SchwarzTolerance      0.100E-05
HFX.StoreERIsTolerance    0.100E-05
HFX.Omega                 0.110E+00
HFX.MaximumNumberGaussians-S                  6
HFX.MaximumNumberGaussians-P                  5
HFX.MaximumNumberGaussians-D                  4
HFX.SeparationExponents                 0.140E+01
HFX.ToleranceFit                 0.100E-02
HFX.GaussianEPS                 0.100E-03
HFX.Dynamic_parallel                    F
HFX.FragSize               60000

# %%% HYBRID XC FDF END

nao2gto_print_info: END -------------------------------------------------------

Si   5
************************ End: HYBRID XC INITIALIZATION ************************

coor:   Atomic-coordinates input format  =     Fractional

siesta: Atomic coordinates (Bohr) and species
siesta:      0.00000   0.00000   0.00000  1        1
siesta:      0.00000   5.13061   5.13061  1        2
siesta:      5.13061   0.00000   5.13061  1        3
siesta:      5.13061   5.13061   0.00000  1        4
siesta:      7.69591   2.56530   7.69591  1        5
siesta:      2.56530   2.56530   2.56530  1        6
siesta:      2.56530   7.69591   7.69591  1        7
siesta:      7.69591   7.69591   2.56530  1        8
siesta:     10.26122   0.00000   0.00000  1        9
siesta:     10.26122   5.13061   5.13061  1       10
siesta:     15.39183   0.00000   5.13061  1       11
siesta:     15.39183   5.13061   0.00000  1       12
siesta:     17.95713   2.56530   7.69591  1       13
siesta:     12.82652   2.56530   2.56530  1       14
siesta:     12.82652   7.69591   7.69591  1       15
siesta:     17.95713   7.69591   2.56530  1       16
siesta:      0.00000  10.26122   0.00000  1       17
siesta:      0.00000  15.39183   5.13061  1       18
siesta:      5.13061  10.26122   5.13061  1       19
siesta:      5.13061  15.39183   0.00000  1       20
siesta:      7.69591  12.82652   7.69591  1       21
siesta:      2.56530  12.82652   2.56530  1       22
siesta:      2.56530  17.95713   7.69591  1       23
siesta:      7.69591  17.95713   2.56530  1       24
siesta:     10.26122  10.26122   0.00000  1       25
siesta:     10.26122  15.39183   5.13061  1       26
siesta:     15.39183  10.26122   5.13061  1       27
siesta:     15.39183  15.39183   0.00000  1       28
siesta:     17.95713  12.82652   7.69591  1       29
siesta:     12.82652  12.82652   2.56530  1       30
siesta:     12.82652  17.95713   7.69591  1       31
siesta:     17.95713  17.95713   2.56530  1       32
siesta:      0.00000   0.00000  10.26122  1       33
siesta:      0.00000   5.13061  15.39183  1       34
siesta:      5.13061   0.00000  15.39183  1       35
siesta:      5.13061   5.13061  10.26122  1       36
siesta:      7.69591   2.56530  17.95713  1       37
siesta:      2.56530   2.56530  12.82652  1       38
siesta:      2.56530   7.69591  17.95713  1       39
siesta:      7.69591   7.69591  12.82652  1       40
siesta:     10.26122   0.00000  10.26122  1       41
siesta:     10.26122   5.13061  15.39183  1       42
siesta:     15.39183   0.00000  15.39183  1       43
siesta:     15.39183   5.13061  10.26122  1       44
siesta:     17.95713   2.56530  17.95713  1       45
siesta:     12.82652   2.56530  12.82652  1       46
siesta:     12.82652   7.69591  17.95713  1       47
siesta:     17.95713   7.69591  12.82652  1       48
siesta:      0.00000  10.26122  10.26122  1       49
siesta:      0.00000  15.39183  15.39183  1       50
siesta:      5.13061  10.26122  15.39183  1       51
siesta:      5.13061  15.39183  10.26122  1       52
siesta:      7.69591  12.82652  17.95713  1       53
siesta:      2.56530  12.82652  12.82652  1       54
siesta:      2.56530  17.95713  17.95713  1       55
siesta:      7.69591  17.95713  12.82652  1       56
siesta:     10.26122  10.26122  10.26122  1       57
siesta:     10.26122  15.39183  15.39183  1       58
siesta:     15.39183  10.26122  15.39183  1       59
siesta:     15.39183  15.39183  10.26122  1       60
siesta:     17.95713  12.82652  17.95713  1       61
siesta:     12.82652  12.82652  12.82652  1       62
siesta:     12.82652  17.95713  17.95713  1       63
siesta:     17.95713  17.95713  12.82652  1       64

siesta: System type = bulk      

initatomlists: Number of atoms, orbitals, and projectors:     64   832  1024

siesta: ******************** Simulation parameters ****************************
siesta:
siesta: The following are some of the parameters of the simulation.
siesta: A complete list of the parameters used, including default values,
siesta: can be found in file out.fdf
siesta:
redata: Spin configuration                          = none
redata: Number of spin components                   = 1
redata: Time-Reversal Symmetry                      = T
redata: Spin spiral                                 = F
redata: Long output                                 =   F
redata: Number of Atomic Species                    =        1
redata: Charge density info will appear in .RHO file
redata: Write Mulliken Pop.                         = NO
redata: Matel table size (NRTAB)                    =     1024
redata: Mesh Cutoff                                 =   250.0000 Ry
redata: Net charge of the system                    =     0.0000 |e|
redata: Min. number of SCF Iter                     =        0
redata: Max. number of SCF Iter                     =       50
redata: SCF convergence failure will abort job
redata: SCF mix quantity                            = Hamiltonian
redata: Mix DM or H after convergence               =   F
redata: Recompute H after scf cycle                 =   F
redata: Mix DM in first SCF step                    =   T
redata: Write Pulay info on disk                    =   F
redata: New DM Occupancy tolerance                  = 0.000000000001
redata: No kicks to SCF
redata: DM Mixing Weight for Kicks                  =     0.5000
redata: Require Harris convergence for SCF          =   F
redata: Harris energy tolerance for SCF             =     0.000100 eV
redata: Require DM convergence for SCF              =   T
redata: DM tolerance for SCF                        =     0.000100
redata: Require EDM convergence for SCF             =   F
redata: EDM tolerance for SCF                       =     0.001000 eV
redata: Require H convergence for SCF               =   T
redata: Hamiltonian tolerance for SCF               =     0.001000 eV
redata: Require (free) Energy convergence for SCF   =   F
redata: (free) Energy tolerance for SCF             =     0.000100 eV
redata: Using Saved Data (generic)                  =   F
redata: Use continuation files for DM               =   F
redata: Neglect nonoverlap interactions             =   F
redata: Method of Calculation                       = Diagonalization
redata: Electronic Temperature                      =   290.1109 K
redata: Fix the spin of the system                  =   F
redata: Dynamics option                             = Single-point calculation
mix.SCF: Pulay mixing                            = Pulay
mix.SCF:    Variant                              = stable
mix.SCF:    History steps                        = 6
mix.SCF:    Linear mixing weight                 =     0.200000
mix.SCF:    Mixing weight                        =     0.200000
mix.SCF:    SVD condition                        = 0.1000E-07
redata: ***********************************************************************

%block SCF.Mixers
  Pulay
%endblock SCF.Mixers

%block SCF.Mixer.Pulay
  # Mixing method
  method pulay
  variant stable

  # Mixing options
  weight 0.2000
  weight.linear 0.2000
  history 6
%endblock SCF.Mixer.Pulay
 
DM_history_depth set to one: no extrapolation allowed by default for geometry relaxation
Size of DM history Fstack: 1
Total number of electrons:   256.000000
Total ionic charge:   256.000000

* ProcessorY, Blocksize:    8   6


* Orbital distribution balance (max,min):    12     6

 Kpoints in:            1 . Kpoints trimmed:            1

siesta: k-grid: Number of k-points =     1
siesta: k-grid: Cutoff (effective) =     5.430 Ang
siesta: k-grid: Supercell and displacements
siesta: k-grid:    1   0   0      0.000
siesta: k-grid:    0   1   0      0.000
siesta: k-grid:    0   0   1      0.000
 
diag: Algorithm                                     = D&C
diag: Parallel over k                               =   F
diag: Use parallel 2D distribution                  =   T
diag: Parallel block-size                           = 6
diag: Parallel distribution                         =     8 x    16
diag: Used triangular part                          = Lower
diag: Absolute tolerance                            =  0.100E-15
diag: Orthogonalization factor                      =  0.100E-05
diag: Memory factor                                 =  1.0000
 
 
ts: **************************************************************
ts: Save H and S matrices                           =    F
ts: Save DM and EDM matrices                        =    F
ts: Only save the overlap matrix S                  =    F
ts: **************************************************************
 
************************ Begin: TS CHECKS AND WARNINGS ************************
************************ End: TS CHECKS AND WARNINGS **************************


                     ====================================
                        Single-point calculation
                     ====================================

outcoor: Atomic coordinates (fractional):                   
    0.00000000    0.00000000    0.00000000   1       1  Si
    0.00000000    0.25000000    0.25000000   1       2  Si
    0.25000000    0.00000000    0.25000000   1       3  Si
    0.25000000    0.25000000    0.00000000   1       4  Si
    0.37500000    0.12500000    0.37500000   1       5  Si
    0.12500000    0.12500000    0.12500000   1       6  Si
    0.12500000    0.37500000    0.37500000   1       7  Si
    0.37500000    0.37500000    0.12500000   1       8  Si
    0.50000000    0.00000000    0.00000000   1       9  Si
    0.50000000    0.25000000    0.25000000   1      10  Si
    0.75000000    0.00000000    0.25000000   1      11  Si
    0.75000000    0.25000000    0.00000000   1      12  Si
    0.87500000    0.12500000    0.37500000   1      13  Si
    0.62500000    0.12500000    0.12500000   1      14  Si
    0.62500000    0.37500000    0.37500000   1      15  Si
    0.87500000    0.37500000    0.12500000   1      16  Si
    0.00000000    0.50000000    0.00000000   1      17  Si
    0.00000000    0.75000000    0.25000000   1      18  Si
    0.25000000    0.50000000    0.25000000   1      19  Si
    0.25000000    0.75000000    0.00000000   1      20  Si
    0.37500000    0.62500000    0.37500000   1      21  Si
    0.12500000    0.62500000    0.12500000   1      22  Si
    0.12500000    0.87500000    0.37500000   1      23  Si
    0.37500000    0.87500000    0.12500000   1      24  Si
    0.50000000    0.50000000    0.00000000   1      25  Si
    0.50000000    0.75000000    0.25000000   1      26  Si
    0.75000000    0.50000000    0.25000000   1      27  Si
    0.75000000    0.75000000    0.00000000   1      28  Si
    0.87500000    0.62500000    0.37500000   1      29  Si
    0.62500000    0.62500000    0.12500000   1      30  Si
    0.62500000    0.87500000    0.37500000   1      31  Si
    0.87500000    0.87500000    0.12500000   1      32  Si
    0.00000000    0.00000000    0.50000000   1      33  Si
    0.00000000    0.25000000    0.75000000   1      34  Si
    0.25000000    0.00000000    0.75000000   1      35  Si
    0.25000000    0.25000000    0.50000000   1      36  Si
    0.37500000    0.12500000    0.87500000   1      37  Si
    0.12500000    0.12500000    0.62500000   1      38  Si
    0.12500000    0.37500000    0.87500000   1      39  Si
    0.37500000    0.37500000    0.62500000   1      40  Si
    0.50000000    0.00000000    0.50000000   1      41  Si
    0.50000000    0.25000000    0.75000000   1      42  Si
    0.75000000    0.00000000    0.75000000   1      43  Si
    0.75000000    0.25000000    0.50000000   1      44  Si
    0.87500000    0.12500000    0.87500000   1      45  Si
    0.62500000    0.12500000    0.62500000   1      46  Si
    0.62500000    0.37500000    0.87500000   1      47  Si
    0.87500000    0.37500000    0.62500000   1      48  Si
    0.00000000    0.50000000    0.50000000   1      49  Si
    0.00000000    0.75000000    0.75000000   1      50  Si
    0.25000000    0.50000000    0.75000000   1      51  Si
    0.25000000    0.75000000    0.50000000   1      52  Si
    0.37500000    0.62500000    0.87500000   1      53  Si
    0.12500000    0.62500000    0.62500000   1      54  Si
    0.12500000    0.87500000    0.87500000   1      55  Si
    0.37500000    0.87500000    0.62500000   1      56  Si
    0.50000000    0.50000000    0.50000000   1      57  Si
    0.50000000    0.75000000    0.75000000   1      58  Si
    0.75000000    0.50000000    0.75000000   1      59  Si
    0.75000000    0.75000000    0.50000000   1      60  Si
    0.87500000    0.62500000    0.87500000   1      61  Si
    0.62500000    0.62500000    0.62500000   1      62  Si
    0.62500000    0.87500000    0.87500000   1      63  Si
    0.87500000    0.87500000    0.62500000   1      64  Si

outcell: Unit cell vectors (Ang):
       10.860000    0.000000    0.000000
        0.000000   10.860000    0.000000
        0.000000    0.000000   10.860000

outcell: Cell vector modules (Ang)   :   10.860000   10.860000   10.860000
outcell: Cell angles (23,13,12) (deg):     90.0000     90.0000     90.0000
outcell: Cell volume (Ang**3)        :   1280.8241
Gamma-point calculation with interaction between periodic images
Some features might not work optimally:
e.g. DM initialization from atomic data
<dSpData1D:S at geom step 0
  <sparsity:sparsity for geom step 0
    nrows_g=832 nrows=12 sparsity=.0117 nnzs=8130, refcount: 7>
  <dData1D:(new from dSpData1D) n=8130, refcount: 1>
refcount: 1>
new_DM -- step:     1
Initializing Density Matrix...
DM filled with atomic data:
<dSpData2D:DM initialized from atoms
  <sparsity:sparsity for geom step 0
    nrows_g=832 nrows=12 sparsity=.0117 nnzs=8130, refcount: 8>
  <dData2D:DM n=8130 m=1, refcount: 1>
refcount: 1>
calc_prescreen_eri: max_eri_prescreen      0.15112031E+01
init_prescreen_eri: nelem_ij =          832
init_prescreen_eri: nelem_kl =          832
init_prescreen_eri: list_ij  :        27872
init_prescreen_eri: list_kl  :        27872
init_prescreen_eri: max_eri =         0.151120E+01
No. of atoms with KB's overlaping orbs in proc 0. Max # of overlaps:      52     239

InitMesh: MESH =   108 x   108 x   108 =     1259712
InitMesh: (bp) =    54 x    54 x    54 =      157464
InitMesh: Mesh cutoff (required, used) =   250.000   273.331 Ry
ExtMesh (bp) on 0 =   146 x    99 x    96 =     1387584
Setting up quadratic distribution...
ExtMesh (bp) on 0 =   106 x   106 x    99 =     1112364
PhiOnMesh: Number of (b)points on node 0 =                 1372
PhiOnMesh: nlist on node 0 =               162447
setup_hfx: call #0001
 setup_hfx: HFX energy:       -370.086117  eV

stepf: Fermi-Dirac step function
setup_hfx: call #0002
 setup_hfx: HFX energy:       -359.659411  eV

siesta: Program's energy decomposition (eV):
siesta: Ebs     =     -2401.905870
siesta: Eions   =     11953.169472
siesta: Ena     =      3398.747926
siesta: Ekin    =      2655.590761
siesta: Enl     =       890.304317
siesta: Eso     =         0.000000
siesta: Edftu   =         0.000000
siesta: DEna    =       250.557737
siesta: DUscf   =        11.609499
siesta: DUext   =         0.000000
siesta: Exc     =     -2097.074544
siesta: eta*DQ  =         0.000000
siesta: Emadel  =         0.000000
siesta: Emeta   =         0.000000
siesta: Emolmec =         0.000000
siesta: Ekinion =         0.000000
siesta: Eharris =     -6932.482468
siesta: Etot    =     -6843.433776
siesta: FreeEng =     -6843.433776

        iscf     Eharris(eV)        E_KS(eV)     FreeEng(eV)     dDmax    Ef(eV) dHmax(eV)
   scf:    1    -6932.482468    -6843.433776    -6843.433776  0.940484 -2.596609  0.331276
timer: Routine,Calls,Time,% = IterSCF        1      54.506  57.97
setup_hfx: call #0003
 setup_hfx: HFX energy:       -360.256837  eV
   scf:    2    -6844.279252    -6843.855710    -6843.855710  0.010422 -2.656296  0.278304
setup_hfx: call #0004
 setup_hfx: HFX energy:       -362.426771  eV
   scf:    3    -6845.430358    -6844.628443    -6844.628443  0.039061 -2.651340  0.112118
setup_hfx: call #0005
 setup_hfx: HFX energy:       -362.574178  eV
   scf:    4    -6844.664360    -6844.646351    -6844.646351  0.009484 -2.564731  0.006632
setup_hfx: call #0006
 setup_hfx: HFX energy:       -362.582019  eV
   scf:    5    -6844.646428    -6844.646372    -6844.646372  0.000310 -2.562781  0.003680
setup_hfx: call #0007
 setup_hfx: HFX energy:       -362.590160  eV
   scf:    6    -6844.646318    -6844.646300    -6844.646300  0.000218 -2.565733  0.000168
setup_hfx: call #0008
 setup_hfx: HFX energy:       -362.590177  eV
   scf:    7    -6844.646302    -6844.646302    -6844.646302  0.000005 -2.565878  0.000073

SCF Convergence by DM+H criterion
max |DM_out - DM_in|         :     0.0000052384
max |H_out - H_in|      (eV) :     0.0000731789
SCF cycle converged after 7 iterations

Using DM_out to compute the final energy and forces
No. of atoms with KB's overlaping orbs in proc 0. Max # of overlaps:      52     239
setup_hfx: call #0009
 setup_hfx: HFX energy:       -362.590177  eV

siesta: E_KS(eV) =            -6844.6463

siesta: E_KS - E_eggbox =     -6844.6463

siesta: Atomic forces (eV/Ang):
     1   -0.001485   -0.001466   -0.001432
     2   -0.001441   -0.001580   -0.001585
     3   -0.001564   -0.001464   -0.001591
     4   -0.001557   -0.001606   -0.001484
     5   -0.001335   -0.001375   -0.001356
     6   -0.001485   -0.001482   -0.001484
     7   -0.001370   -0.001339   -0.001361
     8   -0.001362   -0.001353   -0.001384
     9    0.001382   -0.001331   -0.001336
    10    0.001407   -0.001454   -0.001456
    11    0.001572   -0.001361   -0.001521
    12    0.001594   -0.001527   -0.001391
    13    0.001404   -0.001531   -0.001381
    14    0.001473   -0.001557   -0.001551
    15    0.001494   -0.001353   -0.001394
    16    0.001374   -0.001374   -0.001549
    17   -0.001389    0.001383   -0.001347
    18   -0.001363    0.001549   -0.001515
    19   -0.001446    0.001441   -0.001469
    20   -0.001533    0.001573   -0.001384
    21   -0.001366    0.001494   -0.001391
    22   -0.001550    0.001437   -0.001507
    23   -0.001540    0.001392   -0.001391
    24   -0.001378    0.001392   -0.001555
    25    0.001449    0.001452   -0.001493
    26    0.001360    0.001606   -0.001537
    27    0.001623    0.001383   -0.001507
    28    0.001657    0.001654   -0.001415
    29    0.001312    0.001427   -0.001358
    30    0.001477    0.001473   -0.001479
    31    0.001407    0.001304   -0.001357
    32    0.001321    0.001334   -0.001507
    33   -0.001385   -0.001376    0.001371
    34   -0.001363   -0.001505    0.001570
    35   -0.001522   -0.001357    0.001563
    36   -0.001452   -0.001447    0.001485
    37   -0.001373   -0.001547    0.001376
    38   -0.001536   -0.001571    0.001428
    39   -0.001546   -0.001379    0.001424
    40   -0.001382   -0.001390    0.001436
    41    0.001435   -0.001480    0.001457
    42    0.001388   -0.001500    0.001627
    43    0.001653   -0.001409    0.001663
    44    0.001599   -0.001530    0.001401
    45    0.001299   -0.001508    0.001294
    46    0.001491   -0.001502    0.001505
    47    0.001373   -0.001360    0.001325
    48    0.001313   -0.001345    0.001397
    49   -0.001501    0.001431    0.001452
    50   -0.001428    0.001672    0.001657
    51   -0.001494    0.001395    0.001607
    52   -0.001508    0.001612    0.001407
    53   -0.001324    0.001380    0.001349
    54   -0.001523    0.001467    0.001471
    55   -0.001506    0.001308    0.001327
    56   -0.001337    0.001333    0.001361
    57    0.001337    0.001328    0.001347
    58    0.001435    0.001488    0.001490
    59    0.001508    0.001434    0.001504
    60    0.001509    0.001491    0.001438
    61    0.001399    0.001597    0.001409
    62    0.001466    0.001460    0.001462
    63    0.001614    0.001404    0.001425
    64    0.001398    0.001414    0.001610
----------------------------------------
   Tot    0.000181    0.000151    0.000166
----------------------------------------
   Max    0.001672
   Res    0.001455    sqrt( Sum f_i^2 / 3N )
----------------------------------------
   Max    0.001672    constrained

Stress tensor Voigt[x,y,z,yz,xz,xy] (kbar):     -287.74     -287.74     -287.74       -0.00       -0.00       -0.00
(Free)E + p*V (eV/cell)    -6614.6234
Target enthalpy (eV/cell)    -6844.6463

siesta: Program's energy decomposition (eV):
siesta: Ebs     =     -2393.569154
siesta: Eions   =     11953.169472
siesta: Ena     =      3398.747926
siesta: Ekin    =      2680.932382
siesta: Enl     =       876.700548
siesta: Eso     =         0.000000
siesta: Edftu   =         0.000000
siesta: DEna    =       243.613774
siesta: DUscf   =        13.035146
siesta: DUext   =         0.000000
siesta: Exc     =     -2104.506606
siesta: eta*DQ  =         0.000000
siesta: Emadel  =         0.000000
siesta: Emeta   =         0.000000
siesta: Emolmec =         0.000000
siesta: Ekinion =         0.000000
siesta: Eharris =     -6844.646302
siesta: Etot    =     -6844.646302
siesta: FreeEng =     -6844.646302

siesta: Final energy (eV):
siesta:  Band Struct. =   -2393.569154
siesta:       Kinetic =    2680.932382
siesta:       Hartree =     490.162265
siesta:       Edftu   =       0.000000
siesta:       Eso     =       0.000000
siesta:    Ext. field =       0.000000
siesta:   Exch.-corr. =   -2104.506606
siesta:  Ion-electron =   -3098.549198
siesta:       Ion-ion =   -4812.685145
siesta:       Ekinion =       0.000000
siesta:         Total =   -6844.646302
siesta:         Fermi =      -2.565878

siesta: Stress tensor (static) (eV/Ang**3):
siesta:    -0.179590   -0.000000   -0.000000
siesta:    -0.000000   -0.179590   -0.000000
siesta:    -0.000000   -0.000000   -0.179589

siesta: Cell volume =       1280.824056 Ang**3

siesta: Pressure (static):
siesta:                Solid            Molecule  Units
siesta:           0.00195596          0.00195381  Ry/Bohr**3
siesta:           0.17958979          0.17939233  eV/Ang**3
siesta:         287.73767145        287.42130064  kBar
(Free)E+ p_basis*V_orbitals  =       -6776.242912
(Free)Eharris+ p_basis*V_orbitals  =       -6776.242912

cite: Please see "Sibulk.bib" for an exhaustive BiBTeX file.
cite: Please clearly indicate Siesta version in published work: 4.1.5
cite: This calculation has made use of the following articles
cite: which are encouraged to be cited in a published work.
        Primary SIESTA paper
          DOI: www.doi.org/10.1088/0953-8984/14/11/302
 
>> End of run:  18-JUN-2025   9:39:36
Job completed
